 Entering Gaussian System, Link 0=g09
 Input=Au15.com
 Output=Au15.log
 Initial command:
 /opt/g09/bin/l1.exe /home/work/Gau-10318.inp -scrdir=/home/work/
 Entering Link 1 = /opt/g09/bin/l1.exe PID=     10319.
  
 Copyright (c) 1988,1990,1992,1993,1995,1998,2003,2009,2010,
            Gaussian, Inc.  All Rights Reserved.
  
 This is part of the Gaussian(R) 09 program.  It is based on
 the Gaussian(R) 03 system (copyright 2003, Gaussian, Inc.),
 the Gaussian(R) 98 system (copyright 1998, Gaussian, Inc.),
 the Gaussian(R) 94 system (copyright 1995, Gaussian, Inc.),
 the Gaussian 92(TM) system (copyright 1992, Gaussian, Inc.),
 the Gaussian 90(TM) system (copyright 1990, Gaussian, Inc.),
 the Gaussian 88(TM) system (copyright 1988, Gaussian, Inc.),
 the Gaussian 86(TM) system (copyright 1986, Carnegie Mellon
 University), and the Gaussian 82(TM) system (copyright 1983,
 Carnegie Mellon University). Gaussian is a federally registered
 trademark of Gaussian, Inc.
  
 This software contains proprietary and confidential information,
 including trade secrets, belonging to Gaussian, Inc.
  
 This software is provided under written license and may be
 used, copied, transmitted, or stored only in accord with that
 written license.
  
 The following legend is applicable only to US Government
 contracts under FAR:
  
                    RESTRICTED RIGHTS LEGEND
  
 Use, reproduction and disclosure by the US Government is
 subject to restrictions as set forth in subparagraphs (a)
 and (c) of the Commercial Computer Software - Restricted
 Rights clause in FAR 52.227-19.
  
 Gaussian, Inc.
 340 Quinnipiac St., Bldg. 40, Wallingford CT 06492
  
  
 ---------------------------------------------------------------
 Warning -- This program may not be used in any manner that
 competes with the business of Gaussian, Inc. or will provide
 assistance to any competitor of Gaussian, Inc.  The licensee
 of this program is prohibited from giving any competitor of
 Gaussian, Inc. access to this program.  By using this program,
 the user acknowledges that Gaussian, Inc. is engaged in the
 business of creating and licensing software in the field of
 computational chemistry and represents and warrants to the
 licensee that it is not a competitor of Gaussian, Inc. and that
 it will not use this program in any manner prohibited above.
 ---------------------------------------------------------------
  

 Cite this work as:
 Gaussian 09, Revision B.01,
 M. J. Frisch, G. W. Trucks, H. B. Schlegel, G. E. Scuseria, 
 M. A. Robb, J. R. Cheeseman, G. Scalmani, V. Barone, B. Mennucci, 
 G. A. Petersson, H. Nakatsuji, M. Caricato, X. Li, H. P. Hratchian, 
 A. F. Izmaylov, J. Bloino, G. Zheng, J. L. Sonnenberg, M. Hada, 
 M. Ehara, K. Toyota, R. Fukuda, J. Hasegawa, M. Ishida, T. Nakajima, 
 Y. Honda, O. Kitao, H. Nakai, T. Vreven, J. A. Montgomery, Jr., 
 J. E. Peralta, F. Ogliaro, M. Bearpark, J. J. Heyd, E. Brothers, 
 K. N. Kudin, V. N. Staroverov, T. Keith, R. Kobayashi, J. Normand, 
 K. Raghavachari, A. Rendell, J. C. Burant, S. S. Iyengar, J. Tomasi, 
 M. Cossi, N. Rega, J. M. Millam, M. Klene, J. E. Knox, J. B. Cross, 
 V. Bakken, C. Adamo, J. Jaramillo, R. Gomperts, R. E. Stratmann, 
 O. Yazyev, A. J. Austin, R. Cammi, C. Pomelli, J. W. Ochterski, 
 R. L. Martin, K. Morokuma, V. G. Zakrzewski, G. A. Voth, 
 P. Salvador, J. J. Dannenberg, S. Dapprich, A. D. Daniels, 
 O. Farkas, J. B. Foresman, J. V. Ortiz, J. Cioslowski, 
 and D. J. Fox, Gaussian, Inc., Wallingford CT, 2010.
 
 ******************************************
 Gaussian 09:  EM64L-G09RevB.01 12-Aug-2010
                25-Mar-2015 
 ******************************************
 %nproc=8
 Will use up to    8 processors via shared memory.
 %mem=16Gb
 %chk=./check/Au15.chk
 ----------------------------------------------------------------------
 #p PBEPBE/gen gfinput gfprint SCF(maxcycle=512,conver=6) geom=check gu
 ess=read td(nstat=80,conver=2) pseudo=read
 ----------------------------------------------------------------------
 1/29=2,38=1/1;
 2/12=2,40=1/2;
 3/5=7,11=2,14=-4,16=1,17=8,24=110,25=1,30=1,74=1009,116=-2/1,2,8,3;
 4/5=1/1;
 5/5=2,6=6,7=512,38=6/2;
 8/6=1,10=1,108=80/1;
 9/9=2,41=80,42=1/14;
 6/7=2,8=2,9=2,10=2/1;
 99/5=1,9=1/99;
 Leave Link    1 at Wed Mar 25 14:54:48 2015, MaxMem= 2147483648 cpu:       4.3
 (Enter /opt/g09/bin/l101.exe)
 ----
 Au15
 ----
 Redundant internal coordinates taken from checkpoint file:
 ./check/Au15.chk
 Charge =  0 Multiplicity = 1
 Au,0,7.8204720593,7.7508016931,6.8522320969
 Au,0,7.7485817575,6.1318046521,4.5458648405
 Au,0,9.4430157905,5.4970368628,6.6455170012
 Au,0,12.7660521585,4.3915206127,8.2563068603
 Au,0,15.2999303152,6.4897908263,6.588049231
 Au,0,13.4253294514,8.7923466459,4.4495044021
 Au,0,10.446415428,3.8840239682,4.2782985645
 Au,0,7.1615014936,3.4106644731,5.727633132
 Au,0,12.2796661974,6.5770410868,6.2379854823
 Au,0,6.9411468894,5.4930778958,8.7280291529
 Au,0,10.0216856553,7.3437865962,9.1045564698
 Au,0,9.9060118341,7.8294979106,4.9779365914
 Au,0,2.5925130174,6.2812406512,6.7747414981
 Au,0,4.2515825883,6.0260527588,3.5867342553
 Au,0,4.8196118588,8.0541950165,8.4056007336
 S,0,15.6692971385,8.1219092913,4.8906144576
 S,0,10.4429614697,3.9119384153,8.3205288863
 S,0,15.0828521774,4.9545319543,8.4017742007
 S,0,11.2364602475,9.5379560656,3.8984414898
 S,0,12.4520417511,5.1613735285,4.250439044
 S,0,11.8698901498,8.2796796796,7.9400805215
 S,0,8.6745131336,2.2969457875,4.2660516336
 S,0,8.3225045032,6.3749982618,10.4588966809
 S,0,2.0618138737,5.9701071916,4.4919285325
 S,0,3.1276960822,6.5295498625,9.0776733561
 S,0,6.3780898777,5.9334408079,2.5645086529
 S,0,5.531849069,4.3463710691,7.1787953271
 S,0,6.4656949692,9.5839379507,7.6652200727
 C,0,11.0084607537,10.9678968591,5.0488545441
 C,0,16.0523818215,7.1004626864,3.3979409053
 C,0,15.9828852573,3.4413534202,7.8489737473
 C,0,10.2988537492,2.2060105141,7.6390176071
 C,0,13.6870473127,3.8581365038,4.6699721249
 C,0,13.2351876734,8.1576800044,9.1740160363
 C,0,7.9060681685,2.429439857,2.5937660436
 C,0,7.4061652766,7.8169140503,11.1547712802
 C,0,6.5908546114,7.5940435775,1.7813424646
 C,0,1.3520689134,7.6018117308,3.9875932669
 C,0,1.7676228115,7.5832165194,9.7554671981
 C,0,4.9206691752,2.9036080524,8.1586522093
 C,0,5.7333512792,10.2321395048,6.0942954429
 H,0,9.9628198557,11.2989460235,4.9698694378
 H,0,11.2341973716,10.6781027136,6.0836172501
 H,0,11.6799963192,11.7755465651,4.7230364854
 H,0,16.1799459994,7.7890672618,2.5502648414
 H,0,16.9927181537,6.5614149228,3.5819245322
 H,0,15.2393648058,6.394758954,3.1815198741
 H,0,9.2253024566,1.9763057622,7.5520835235
 H,0,10.7682232996,2.1265932393,6.6480898785
 H,0,10.7724059877,1.5076987597,8.3447067251
 H,0,13.2962195656,7.1475317952,9.6013806082
 H,0,7.1248222619,8.5312744202,10.3705396115
 H,0,6.5024714779,7.4352971143,11.6516848636
 H,0,8.0612897229,8.3032035879,11.8924734422
 H,0,14.6625121075,4.3537996862,4.8081130642
 H,0,13.7374647018,3.1456938289,3.8332603107
 H,0,13.4080079581,3.3398855751,5.5996766419
 H,0,17.0535255332,3.6859688118,7.7964097826
 H,0,15.6282837875,3.0932748987,6.8706155323
 H,0,15.8181170873,2.6607551188,8.605670776
 H,0,13.0376707345,8.8906554064,9.9700896504
 H,0,14.1779244587,8.4062646745,8.6628277114
 H,0,5.878643452,7.6748095243,0.9475521557
 H,0,6.4220800501,8.3996318679,2.5069663916
 H,0,1.2333424229,7.5944524591,2.8946246889
 H,0,0.3667986602,7.700595441,4.4650773452
 H,0,2.0010970613,8.43231229,4.2916025374
 H,0,7.6204702666,7.6500382636,1.4000011292
 H,0,4.3735431184,2.238142256,7.4751557423
 H,0,5.7488603688,2.3628727699,8.6339132602
 H,0,4.2347794066,3.2953357169,8.9240684852
 H,0,2.0682484451,7.9192512339,10.7583067487
 H,0,0.8626278429,6.9632614475,9.8296596598
 H,0,1.5782951402,8.4497736472,9.1103006661
 H,0,7.0058194345,1.7980737107,2.5886228594
 H,0,8.6331016354,2.0450720072,1.8637648923
 H,0,7.6391458548,3.4671868357,2.3554452964
 H,0,6.533827591,10.7362061864,5.5335776547
 H,0,4.9475026555,10.9562698165,6.3545899577
 H,0,5.3130692066,9.4147576102,5.4937769478
 Recover connectivity data from disk.
                    Isotopes and Nuclear Properties:
 (Nuclear quadrupole moments (NQMom) in fm**2, nuclear magnetic moments (NMagM)
  in nuclear magnetons)

  Atom         1           2           3           4           5           6           7           8           9          10
 IAtWgt=         197         197         197         197         197         197         197         197         197         197
 AtmWgt= 196.9666000 196.9666000 196.9666000 196.9666000 196.9666000 196.9666000 196.9666000 196.9666000 196.9666000 196.9666000
 NucSpn=           3           3           3           3           3           3           3           3           3           3
 AtZEff=************************************************************************************************************************
 NQMom=   54.7000000  54.7000000  54.7000000  54.7000000  54.7000000  54.7000000  54.7000000  54.7000000  54.7000000  54.7000000
 NMagM=    0.1481590   0.1481590   0.1481590   0.1481590   0.1481590   0.1481590   0.1481590   0.1481590   0.1481590   0.1481590

  Atom        11          12          13          14          15          16          17          18          19          20
 IAtWgt=         197         197         197         197         197          32          32          32          32          32
 AtmWgt= 196.9666000 196.9666000 196.9666000 196.9666000 196.9666000  31.9720718  31.9720718  31.9720718  31.9720718  31.9720718
 NucSpn=           3           3           3           3           3           0           0           0           0           0
 AtZEff=************************************************************ -13.6000000 -13.6000000 -13.6000000 -13.6000000 -13.6000000
 NQMom=   54.7000000  54.7000000  54.7000000  54.7000000  54.7000000   0.0000000   0.0000000   0.0000000   0.0000000   0.0000000
 NMagM=    0.1481590   0.1481590   0.1481590   0.1481590   0.1481590   0.0000000   0.0000000   0.0000000   0.0000000   0.0000000

  Atom        21          22          23          24          25          26          27          28          29          30
 IAtWgt=          32          32          32          32          32          32          32          32          12          12
 AtmWgt=  31.9720718  31.9720718  31.9720718  31.9720718  31.9720718  31.9720718  31.9720718  31.9720718  12.0000000  12.0000000
 NucSpn=           0           0           0           0           0           0           0           0           0           0
 AtZEff= -13.6000000 -13.6000000 -13.6000000 -13.6000000 -13.6000000 -13.6000000 -13.6000000 -13.6000000  -3.6000000  -3.6000000
 NQMom=    0.0000000   0.0000000   0.0000000   0.0000000   0.0000000   0.0000000   0.0000000   0.0000000   0.0000000   0.0000000
 NMagM=    0.0000000   0.0000000   0.0000000   0.0000000   0.0000000   0.0000000   0.0000000   0.0000000   0.0000000   0.0000000

  Atom        31          32          33          34          35          36          37          38          39          40
 IAtWgt=          12          12          12          12          12          12          12          12          12          12
 AtmWgt=  12.0000000  12.0000000  12.0000000  12.0000000  12.0000000  12.0000000  12.0000000  12.0000000  12.0000000  12.0000000
 NucSpn=           0           0           0           0           0           0           0           0           0           0
 AtZEff=  -3.6000000  -3.6000000  -3.6000000  -3.6000000  -3.6000000  -3.6000000  -3.6000000  -3.6000000  -3.6000000  -3.6000000
 NQMom=    0.0000000   0.0000000   0.0000000   0.0000000   0.0000000   0.0000000   0.0000000   0.0000000   0.0000000   0.0000000
 NMagM=    0.0000000   0.0000000   0.0000000   0.0000000   0.0000000   0.0000000   0.0000000   0.0000000   0.0000000   0.0000000

  Atom        41          42          43          44          45          46          47          48          49          50
 IAtWgt=          12           1           1           1           1           1           1           1           1           1
 AtmWgt=  12.0000000   1.0078250   1.0078250   1.0078250   1.0078250   1.0078250   1.0078250   1.0078250   1.0078250   1.0078250
 NucSpn=           0           1           1           1           1           1           1           1           1           1
 AtZEff=  -3.6000000  -1.0000000  -1.0000000  -1.0000000  -1.0000000  -1.0000000  -1.0000000  -1.0000000  -1.0000000  -1.0000000
 NQMom=    0.0000000   0.0000000   0.0000000   0.0000000   0.0000000   0.0000000   0.0000000   0.0000000   0.0000000   0.0000000
 NMagM=    0.0000000   2.7928460   2.7928460   2.7928460   2.7928460   2.7928460   2.7928460   2.7928460   2.7928460   2.7928460

  Atom        51          52          53          54          55          56          57          58          59          60
 IAtWgt=           1           1           1           1           1           1           1           1           1           1
 AtmWgt=   1.0078250   1.0078250   1.0078250   1.0078250   1.0078250   1.0078250   1.0078250   1.0078250   1.0078250   1.0078250
 NucSpn=           1           1           1           1           1           1           1           1           1           1
 AtZEff=  -1.0000000  -1.0000000  -1.0000000  -1.0000000  -1.0000000  -1.0000000  -1.0000000  -1.0000000  -1.0000000  -1.0000000
 NQMom=    0.0000000   0.0000000   0.0000000   0.0000000   0.0000000   0.0000000   0.0000000   0.0000000   0.0000000   0.0000000
 NMagM=    2.7928460   2.7928460   2.7928460   2.7928460   2.7928460   2.7928460   2.7928460   2.7928460   2.7928460   2.7928460

  Atom        61          62          63          64          65          66          67          68          69          70
 IAtWgt=           1           1           1           1           1           1           1           1           1           1
 AtmWgt=   1.0078250   1.0078250   1.0078250   1.0078250   1.0078250   1.0078250   1.0078250   1.0078250   1.0078250   1.0078250
 NucSpn=           1           1           1           1           1           1           1           1           1           1
 AtZEff=  -1.0000000  -1.0000000  -1.0000000  -1.0000000  -1.0000000  -1.0000000  -1.0000000  -1.0000000  -1.0000000  -1.0000000
 NQMom=    0.0000000   0.0000000   0.0000000   0.0000000   0.0000000   0.0000000   0.0000000   0.0000000   0.0000000   0.0000000
 NMagM=    2.7928460   2.7928460   2.7928460   2.7928460   2.7928460   2.7928460   2.7928460   2.7928460   2.7928460   2.7928460

  Atom        71          72          73          74          75          76          77          78          79          80
 IAtWgt=           1           1           1           1           1           1           1           1           1           1
 AtmWgt=   1.0078250   1.0078250   1.0078250   1.0078250   1.0078250   1.0078250   1.0078250   1.0078250   1.0078250   1.0078250
 NucSpn=           1           1           1           1           1           1           1           1           1           1
 AtZEff=  -1.0000000  -1.0000000  -1.0000000  -1.0000000  -1.0000000  -1.0000000  -1.0000000  -1.0000000  -1.0000000  -1.0000000
 NQMom=    0.0000000   0.0000000   0.0000000   0.0000000   0.0000000   0.0000000   0.0000000   0.0000000   0.0000000   0.0000000
 NMagM=    2.7928460   2.7928460   2.7928460   2.7928460   2.7928460   2.7928460   2.7928460   2.7928460   2.7928460   2.7928460
 Leave Link  101 at Wed Mar 25 14:54:49 2015, MaxMem= 2147483648 cpu:       1.6
 (Enter /opt/g09/bin/l202.exe)
 Stoichiometry    C13H39Au15S13
 Framework group  C1[X(C13H39Au15S13)]
 Deg. of freedom   234
 Full point group                 C1      NOp   1
 Largest Abelian subgroup         C1      NOp   1
 Largest concise Abelian subgroup C1      NOp   1
                         Standard orientation:                         
 ---------------------------------------------------------------------
 Center     Atomic      Atomic             Coordinates (Angstroms)
 Number     Number       Type             X           Y           Z
 ---------------------------------------------------------------------
      1         79           0        1.166335    0.830049    1.340354
      2         79           0        1.206824   -1.800336    0.327887
      3         79           0       -0.435764    0.113513   -0.821749
      4         79           0       -3.711766    1.468472   -2.335446
      5         79           0       -6.302972    0.403028    0.063895
      6         79           0       -4.499124   -1.148395    2.843910
      7         79           0       -1.471615   -2.555154   -1.830498
      8         79           0        1.848206   -1.322559   -2.588652
      9         79           0       -3.291926    0.030297    0.280291
     10         79           0        2.109579    2.087972   -1.289677
     11         79           0       -0.982116    2.956196    0.366893
     12         79           0       -0.959192   -0.931809    1.836989
     13         79           0        6.407060    0.305570    0.014874
     14         79           0        4.683647   -2.819188    0.511623
     15         79           0        4.195990    2.356546    1.306271
     16         16           0       -6.725858   -0.842330    2.051803
     17         16           0       -1.382787    1.373073   -2.780001
     18         16           0       -6.030914    1.787366   -1.860510
     19         16           0       -2.330615   -1.541959    3.734658
     20         16           0       -3.491074   -2.237221   -0.615740
     21         16           0       -2.864597    2.086035    1.527429
     22         16           0        0.316685   -2.982716   -3.339730
     23         16           0        0.755764    4.005271   -0.873760
     24         16           0        6.892587   -1.993865    0.272833
     25         16           0        5.918155    2.609408   -0.308972
     26         16           0        2.537077   -3.795115    0.635540
     27         16           0        3.498039    0.282338   -2.005951
     28         16           0        2.518141    2.037825    2.943680
     29          6           0       -2.093757   -0.084126    4.847665
     30          6           0       -7.129429   -2.530618    1.415408
     31          6           0       -6.926049    0.901233   -3.209161
     32          6           0       -1.234721    0.296707   -4.268264
     33          6           0       -4.702748   -2.123258   -2.000851
     34          6           0       -4.202035    3.278131    1.089609
     35          6           0        1.048034   -4.586819   -2.795139
     36          6           0        1.671004    5.012676    0.371435
     37          6           0        2.289819   -4.149425    2.432634
     38          6           0        7.573800   -2.101220    1.988926
     39          6           0        7.280818    3.497400    0.570823
     40          6           0        4.145413    0.873003   -3.632988
     41          6           0        3.209973    0.657439    3.963582
     42          1           0       -1.053665   -0.099453    5.204276
     43          1           0       -2.294364    0.853701    4.312960
     44          1           0       -2.780740   -0.192812    5.699520
     45          1           0       -7.282369   -3.184140    2.286340
     46          1           0       -8.059771   -2.465626    0.833263
     47          1           0       -6.313599   -2.925863    0.795686
     48          1           0       -0.160833    0.137537   -4.453367
     49          1           0       -1.724103   -0.675416   -4.113231
     50          1           0       -1.685632    0.820926   -5.123695
     51          1           0       -4.243070    3.449504    0.005307
     52          1           0        1.927922    4.419593    1.258413
     53          1           0        2.589100    5.386227   -0.104775
     54          1           0        1.026444    5.857733    0.654791
     55          1           0       -5.680368   -1.851843   -1.568543
     56          1           0       -4.763183   -3.106403   -2.490727
     57          1           0       -4.398479   -1.351673   -2.723951
     58          1           0       -8.000145    0.928625   -2.975841
     59          1           0       -6.588522   -0.138470   -3.304965
     60          1           0       -6.736850    1.443574   -4.146787
     61          1           0       -3.995626    4.224175    1.611523
     62          1           0       -5.158028    2.859256    1.439585
     63          1           0        2.983282   -4.951571    2.723570
     64          1           0        2.465216   -3.253648    3.041573
     65          1           0        7.669406   -3.165466    2.247711
     66          1           0        8.567844   -1.631788    1.984791
     67          1           0        6.922420   -1.593761    2.711131
     68          1           0        1.251806   -4.487352    2.563021
     69          1           0        4.685091    0.039134   -4.104972
     70          1           0        3.333375    1.218153   -4.285395
     71          1           0        4.843096    1.698000   -3.427136
     72          1           0        6.997900    4.556971    0.649870
     73          1           0        8.193832    3.403180   -0.034481
     74          1           0        7.447049    3.077693    1.570433
     75          1           0        1.954745   -4.760681   -3.392420
     76          1           0        0.309890   -5.374940   -3.003048
     77          1           0        1.298610   -4.571815   -1.726518
     78          1           0        2.392389    0.249753    4.575627
     79          1           0        3.993287    1.071000    4.615550
     80          1           0        3.626245   -0.130396    3.322173
 ---------------------------------------------------------------------
 Rotational constants (GHZ):      0.0224483      0.0088761      0.0085177
 Leave Link  202 at Wed Mar 25 14:54:49 2015, MaxMem= 2147483648 cpu:       0.1
 (Enter /opt/g09/bin/l301.exe)
 General basis read from cards:  (5D, 7F)
 Centers:   1  2  3  4  5  6  7  8  9 10 11 12 13 14 15
 LANL2DZ
 ****
 Centers:  29 30 31 32 33 34 35 36 37 38 39 40 41 42 43 44 45 46 47 48
 Centers:  49 50 51 52 53 54 55 56 57 58 59 60 61 62 63 64 65 66 67 68
 Centers:  69 70 71 72 73 74 75 76 77 78 79 80 16 17 18 19 20 21 22 23
 Centers:  24 25 26 27 28
 6-31G**
 ****
 Ernie: Thresh=  0.10000D-02 Tol=  0.10000D-05 Strict=F.
 Ernie:  15 primitive shells out of 814 were deleted.
 AO basis set in the form of general basis input (Overlap normalization):
      1 0
 S   3 1.00       0.000000000000
      0.1595000000D+01 -0.3687038149D+00
      0.5327000000D+00 -0.1034828905D+01
      0.2826000000D+00  0.1945011640D+01
 S   3 1.00       0.000000000000
      0.2809000000D+01 -0.1202156130D+01
      0.1595000000D+01  0.1674158181D+01
      0.5327000000D+00  0.3526593382D+00
 S   1 1.00       0.000000000000
      0.5980000000D-01  0.1000000000D+01
 P   3 1.00       0.000000000000
      0.3684000000D+01 -0.2802680816D+00
      0.1666000000D+01  0.7818397487D+00
      0.5989000000D+00  0.4804775685D+00
 P   2 1.00       0.000000000000
      0.6838000000D+00 -0.9520777209D-01
      0.9770000000D-01  0.1029914698D+01
 P   1 1.00       0.000000000000
      0.2790000000D-01  0.1000000000D+01
 D   2 1.00       0.000000000000
      0.1287000000D+01  0.5844272770D+00
      0.4335000000D+00  0.5298160791D+00
 D   1 1.00       0.000000000000
      0.1396000000D+00  0.1000000000D+01
 ****
      2 0
 S   3 1.00       0.000000000000
      0.1595000000D+01 -0.3687038149D+00
      0.5327000000D+00 -0.1034828905D+01
      0.2826000000D+00  0.1945011640D+01
 S   3 1.00       0.000000000000
      0.2809000000D+01 -0.1202156130D+01
      0.1595000000D+01  0.1674158181D+01
      0.5327000000D+00  0.3526593382D+00
 S   1 1.00       0.000000000000
      0.5980000000D-01  0.1000000000D+01
 P   3 1.00       0.000000000000
      0.3684000000D+01 -0.2802680816D+00
      0.1666000000D+01  0.7818397487D+00
      0.5989000000D+00  0.4804775685D+00
 P   2 1.00       0.000000000000
      0.6838000000D+00 -0.9520777209D-01
      0.9770000000D-01  0.1029914698D+01
 P   1 1.00       0.000000000000
      0.2790000000D-01  0.1000000000D+01
 D   2 1.00       0.000000000000
      0.1287000000D+01  0.5844272770D+00
      0.4335000000D+00  0.5298160791D+00
 D   1 1.00       0.000000000000
      0.1396000000D+00  0.1000000000D+01
 ****
      3 0
 S   3 1.00       0.000000000000
      0.1595000000D+01 -0.3687038149D+00
      0.5327000000D+00 -0.1034828905D+01
      0.2826000000D+00  0.1945011640D+01
 S   3 1.00       0.000000000000
      0.2809000000D+01 -0.1202156130D+01
      0.1595000000D+01  0.1674158181D+01
      0.5327000000D+00  0.3526593382D+00
 S   1 1.00       0.000000000000
      0.5980000000D-01  0.1000000000D+01
 P   3 1.00       0.000000000000
      0.3684000000D+01 -0.2802680816D+00
      0.1666000000D+01  0.7818397487D+00
      0.5989000000D+00  0.4804775685D+00
 P   2 1.00       0.000000000000
      0.6838000000D+00 -0.9520777209D-01
      0.9770000000D-01  0.1029914698D+01
 P   1 1.00       0.000000000000
      0.2790000000D-01  0.1000000000D+01
 D   2 1.00       0.000000000000
      0.1287000000D+01  0.5844272770D+00
      0.4335000000D+00  0.5298160791D+00
 D   1 1.00       0.000000000000
      0.1396000000D+00  0.1000000000D+01
 ****
      4 0
 S   3 1.00       0.000000000000
      0.1595000000D+01 -0.3687038149D+00
      0.5327000000D+00 -0.1034828905D+01
      0.2826000000D+00  0.1945011640D+01
 S   3 1.00       0.000000000000
      0.2809000000D+01 -0.1202156130D+01
      0.1595000000D+01  0.1674158181D+01
      0.5327000000D+00  0.3526593382D+00
 S   1 1.00       0.000000000000
      0.5980000000D-01  0.1000000000D+01
 P   3 1.00       0.000000000000
      0.3684000000D+01 -0.2802680816D+00
      0.1666000000D+01  0.7818397487D+00
      0.5989000000D+00  0.4804775685D+00
 P   2 1.00       0.000000000000
      0.6838000000D+00 -0.9520777209D-01
      0.9770000000D-01  0.1029914698D+01
 P   1 1.00       0.000000000000
      0.2790000000D-01  0.1000000000D+01
 D   2 1.00       0.000000000000
      0.1287000000D+01  0.5844272770D+00
      0.4335000000D+00  0.5298160791D+00
 D   1 1.00       0.000000000000
      0.1396000000D+00  0.1000000000D+01
 ****
      5 0
 S   3 1.00       0.000000000000
      0.1595000000D+01 -0.3687038149D+00
      0.5327000000D+00 -0.1034828905D+01
      0.2826000000D+00  0.1945011640D+01
 S   3 1.00       0.000000000000
      0.2809000000D+01 -0.1202156130D+01
      0.1595000000D+01  0.1674158181D+01
      0.5327000000D+00  0.3526593382D+00
 S   1 1.00       0.000000000000
      0.5980000000D-01  0.1000000000D+01
 P   3 1.00       0.000000000000
      0.3684000000D+01 -0.2802680816D+00
      0.1666000000D+01  0.7818397487D+00
      0.5989000000D+00  0.4804775685D+00
 P   2 1.00       0.000000000000
      0.6838000000D+00 -0.9520777209D-01
      0.9770000000D-01  0.1029914698D+01
 P   1 1.00       0.000000000000
      0.2790000000D-01  0.1000000000D+01
 D   2 1.00       0.000000000000
      0.1287000000D+01  0.5844272770D+00
      0.4335000000D+00  0.5298160791D+00
 D   1 1.00       0.000000000000
      0.1396000000D+00  0.1000000000D+01
 ****
      6 0
 S   3 1.00       0.000000000000
      0.1595000000D+01 -0.3687038149D+00
      0.5327000000D+00 -0.1034828905D+01
      0.2826000000D+00  0.1945011640D+01
 S   3 1.00       0.000000000000
      0.2809000000D+01 -0.1202156130D+01
      0.1595000000D+01  0.1674158181D+01
      0.5327000000D+00  0.3526593382D+00
 S   1 1.00       0.000000000000
      0.5980000000D-01  0.1000000000D+01
 P   3 1.00       0.000000000000
      0.3684000000D+01 -0.2802680816D+00
      0.1666000000D+01  0.7818397487D+00
      0.5989000000D+00  0.4804775685D+00
 P   2 1.00       0.000000000000
      0.6838000000D+00 -0.9520777209D-01
      0.9770000000D-01  0.1029914698D+01
 P   1 1.00       0.000000000000
      0.2790000000D-01  0.1000000000D+01
 D   2 1.00       0.000000000000
      0.1287000000D+01  0.5844272770D+00
      0.4335000000D+00  0.5298160791D+00
 D   1 1.00       0.000000000000
      0.1396000000D+00  0.1000000000D+01
 ****
      7 0
 S   3 1.00       0.000000000000
      0.1595000000D+01 -0.3687038149D+00
      0.5327000000D+00 -0.1034828905D+01
      0.2826000000D+00  0.1945011640D+01
 S   3 1.00       0.000000000000
      0.2809000000D+01 -0.1202156130D+01
      0.1595000000D+01  0.1674158181D+01
      0.5327000000D+00  0.3526593382D+00
 S   1 1.00       0.000000000000
      0.5980000000D-01  0.1000000000D+01
 P   3 1.00       0.000000000000
      0.3684000000D+01 -0.2802680816D+00
      0.1666000000D+01  0.7818397487D+00
      0.5989000000D+00  0.4804775685D+00
 P   2 1.00       0.000000000000
      0.6838000000D+00 -0.9520777209D-01
      0.9770000000D-01  0.1029914698D+01
 P   1 1.00       0.000000000000
      0.2790000000D-01  0.1000000000D+01
 D   2 1.00       0.000000000000
      0.1287000000D+01  0.5844272770D+00
      0.4335000000D+00  0.5298160791D+00
 D   1 1.00       0.000000000000
      0.1396000000D+00  0.1000000000D+01
 ****
      8 0
 S   3 1.00       0.000000000000
      0.1595000000D+01 -0.3687038149D+00
      0.5327000000D+00 -0.1034828905D+01
      0.2826000000D+00  0.1945011640D+01
 S   3 1.00       0.000000000000
      0.2809000000D+01 -0.1202156130D+01
      0.1595000000D+01  0.1674158181D+01
      0.5327000000D+00  0.3526593382D+00
 S   1 1.00       0.000000000000
      0.5980000000D-01  0.1000000000D+01
 P   3 1.00       0.000000000000
      0.3684000000D+01 -0.2802680816D+00
      0.1666000000D+01  0.7818397487D+00
      0.5989000000D+00  0.4804775685D+00
 P   2 1.00       0.000000000000
      0.6838000000D+00 -0.9520777209D-01
      0.9770000000D-01  0.1029914698D+01
 P   1 1.00       0.000000000000
      0.2790000000D-01  0.1000000000D+01
 D   2 1.00       0.000000000000
      0.1287000000D+01  0.5844272770D+00
      0.4335000000D+00  0.5298160791D+00
 D   1 1.00       0.000000000000
      0.1396000000D+00  0.1000000000D+01
 ****
      9 0
 S   3 1.00       0.000000000000
      0.1595000000D+01 -0.3687038149D+00
      0.5327000000D+00 -0.1034828905D+01
      0.2826000000D+00  0.1945011640D+01
 S   3 1.00       0.000000000000
      0.2809000000D+01 -0.1202156130D+01
      0.1595000000D+01  0.1674158181D+01
      0.5327000000D+00  0.3526593382D+00
 S   1 1.00       0.000000000000
      0.5980000000D-01  0.1000000000D+01
 P   3 1.00       0.000000000000
      0.3684000000D+01 -0.2802680816D+00
      0.1666000000D+01  0.7818397487D+00
      0.5989000000D+00  0.4804775685D+00
 P   2 1.00       0.000000000000
      0.6838000000D+00 -0.9520777209D-01
      0.9770000000D-01  0.1029914698D+01
 P   1 1.00       0.000000000000
      0.2790000000D-01  0.1000000000D+01
 D   2 1.00       0.000000000000
      0.1287000000D+01  0.5844272770D+00
      0.4335000000D+00  0.5298160791D+00
 D   1 1.00       0.000000000000
      0.1396000000D+00  0.1000000000D+01
 ****
     10 0
 S   3 1.00       0.000000000000
      0.1595000000D+01 -0.3687038149D+00
      0.5327000000D+00 -0.1034828905D+01
      0.2826000000D+00  0.1945011640D+01
 S   3 1.00       0.000000000000
      0.2809000000D+01 -0.1202156130D+01
      0.1595000000D+01  0.1674158181D+01
      0.5327000000D+00  0.3526593382D+00
 S   1 1.00       0.000000000000
      0.5980000000D-01  0.1000000000D+01
 P   3 1.00       0.000000000000
      0.3684000000D+01 -0.2802680816D+00
      0.1666000000D+01  0.7818397487D+00
      0.5989000000D+00  0.4804775685D+00
 P   2 1.00       0.000000000000
      0.6838000000D+00 -0.9520777209D-01
      0.9770000000D-01  0.1029914698D+01
 P   1 1.00       0.000000000000
      0.2790000000D-01  0.1000000000D+01
 D   2 1.00       0.000000000000
      0.1287000000D+01  0.5844272770D+00
      0.4335000000D+00  0.5298160791D+00
 D   1 1.00       0.000000000000
      0.1396000000D+00  0.1000000000D+01
 ****
     11 0
 S   3 1.00       0.000000000000
      0.1595000000D+01 -0.3687038149D+00
      0.5327000000D+00 -0.1034828905D+01
      0.2826000000D+00  0.1945011640D+01
 S   3 1.00       0.000000000000
      0.2809000000D+01 -0.1202156130D+01
      0.1595000000D+01  0.1674158181D+01
      0.5327000000D+00  0.3526593382D+00
 S   1 1.00       0.000000000000
      0.5980000000D-01  0.1000000000D+01
 P   3 1.00       0.000000000000
      0.3684000000D+01 -0.2802680816D+00
      0.1666000000D+01  0.7818397487D+00
      0.5989000000D+00  0.4804775685D+00
 P   2 1.00       0.000000000000
      0.6838000000D+00 -0.9520777209D-01
      0.9770000000D-01  0.1029914698D+01
 P   1 1.00       0.000000000000
      0.2790000000D-01  0.1000000000D+01
 D   2 1.00       0.000000000000
      0.1287000000D+01  0.5844272770D+00
      0.4335000000D+00  0.5298160791D+00
 D   1 1.00       0.000000000000
      0.1396000000D+00  0.1000000000D+01
 ****
     12 0
 S   3 1.00       0.000000000000
      0.1595000000D+01 -0.3687038149D+00
      0.5327000000D+00 -0.1034828905D+01
      0.2826000000D+00  0.1945011640D+01
 S   3 1.00       0.000000000000
      0.2809000000D+01 -0.1202156130D+01
      0.1595000000D+01  0.1674158181D+01
      0.5327000000D+00  0.3526593382D+00
 S   1 1.00       0.000000000000
      0.5980000000D-01  0.1000000000D+01
 P   3 1.00       0.000000000000
      0.3684000000D+01 -0.2802680816D+00
      0.1666000000D+01  0.7818397487D+00
      0.5989000000D+00  0.4804775685D+00
 P   2 1.00       0.000000000000
      0.6838000000D+00 -0.9520777209D-01
      0.9770000000D-01  0.1029914698D+01
 P   1 1.00       0.000000000000
      0.2790000000D-01  0.1000000000D+01
 D   2 1.00       0.000000000000
      0.1287000000D+01  0.5844272770D+00
      0.4335000000D+00  0.5298160791D+00
 D   1 1.00       0.000000000000
      0.1396000000D+00  0.1000000000D+01
 ****
     13 0
 S   3 1.00       0.000000000000
      0.1595000000D+01 -0.3687038149D+00
      0.5327000000D+00 -0.1034828905D+01
      0.2826000000D+00  0.1945011640D+01
 S   3 1.00       0.000000000000
      0.2809000000D+01 -0.1202156130D+01
      0.1595000000D+01  0.1674158181D+01
      0.5327000000D+00  0.3526593382D+00
 S   1 1.00       0.000000000000
      0.5980000000D-01  0.1000000000D+01
 P   3 1.00       0.000000000000
      0.3684000000D+01 -0.2802680816D+00
      0.1666000000D+01  0.7818397487D+00
      0.5989000000D+00  0.4804775685D+00
 P   2 1.00       0.000000000000
      0.6838000000D+00 -0.9520777209D-01
      0.9770000000D-01  0.1029914698D+01
 P   1 1.00       0.000000000000
      0.2790000000D-01  0.1000000000D+01
 D   2 1.00       0.000000000000
      0.1287000000D+01  0.5844272770D+00
      0.4335000000D+00  0.5298160791D+00
 D   1 1.00       0.000000000000
      0.1396000000D+00  0.1000000000D+01
 ****
     14 0
 S   3 1.00       0.000000000000
      0.1595000000D+01 -0.3687038149D+00
      0.5327000000D+00 -0.1034828905D+01
      0.2826000000D+00  0.1945011640D+01
 S   3 1.00       0.000000000000
      0.2809000000D+01 -0.1202156130D+01
      0.1595000000D+01  0.1674158181D+01
      0.5327000000D+00  0.3526593382D+00
 S   1 1.00       0.000000000000
      0.5980000000D-01  0.1000000000D+01
 P   3 1.00       0.000000000000
      0.3684000000D+01 -0.2802680816D+00
      0.1666000000D+01  0.7818397487D+00
      0.5989000000D+00  0.4804775685D+00
 P   2 1.00       0.000000000000
      0.6838000000D+00 -0.9520777209D-01
      0.9770000000D-01  0.1029914698D+01
 P   1 1.00       0.000000000000
      0.2790000000D-01  0.1000000000D+01
 D   2 1.00       0.000000000000
      0.1287000000D+01  0.5844272770D+00
      0.4335000000D+00  0.5298160791D+00
 D   1 1.00       0.000000000000
      0.1396000000D+00  0.1000000000D+01
 ****
     15 0
 S   3 1.00       0.000000000000
      0.1595000000D+01 -0.3687038149D+00
      0.5327000000D+00 -0.1034828905D+01
      0.2826000000D+00  0.1945011640D+01
 S   3 1.00       0.000000000000
      0.2809000000D+01 -0.1202156130D+01
      0.1595000000D+01  0.1674158181D+01
      0.5327000000D+00  0.3526593382D+00
 S   1 1.00       0.000000000000
      0.5980000000D-01  0.1000000000D+01
 P   3 1.00       0.000000000000
      0.3684000000D+01 -0.2802680816D+00
      0.1666000000D+01  0.7818397487D+00
      0.5989000000D+00  0.4804775685D+00
 P   2 1.00       0.000000000000
      0.6838000000D+00 -0.9520777209D-01
      0.9770000000D-01  0.1029914698D+01
 P   1 1.00       0.000000000000
      0.2790000000D-01  0.1000000000D+01
 D   2 1.00       0.000000000000
      0.1287000000D+01  0.5844272770D+00
      0.4335000000D+00  0.5298160791D+00
 D   1 1.00       0.000000000000
      0.1396000000D+00  0.1000000000D+01
 ****
     16 0
 S   6 1.00       0.000000000000
      0.2191710000D+05  0.1869240849D-02
      0.3301490000D+04  0.1423030646D-01
      0.7541460000D+03  0.6969623166D-01
      0.2127110000D+03  0.2384871083D+00
      0.6798960000D+02  0.4833072195D+00
      0.2305150000D+02  0.3380741536D+00
 SP   6 1.00       0.000000000000
      0.4237350000D+03 -0.2376770499D-02  0.4061009982D-02
      0.1007100000D+03 -0.3169300665D-01  0.3068129986D-01
      0.3215990000D+02 -0.1133170238D+00  0.1304519994D+00
      0.1180790000D+02  0.5609001177D-01  0.3272049985D+00
      0.4631100000D+01  0.5922551243D+00  0.4528509980D+00
      0.1870250000D+01  0.4550060955D+00  0.2560419989D+00
 SP   3 1.00       0.000000000000
      0.2615840000D+01 -0.2503731142D+00 -0.1451048955D-01
      0.9221670000D+00  0.6695676310D-01  0.3102627765D+00
      0.3412870000D+00  0.1054506269D+01  0.7544824565D+00
 SP   1 1.00       0.000000000000
      0.1171670000D+00  0.1000000000D+01  0.1000000000D+01
 D   1 1.00       0.000000000000
      0.6500000000D+00  0.1000000000D+01
 ****
     17 0
 S   6 1.00       0.000000000000
      0.2191710000D+05  0.1869240849D-02
      0.3301490000D+04  0.1423030646D-01
      0.7541460000D+03  0.6969623166D-01
      0.2127110000D+03  0.2384871083D+00
      0.6798960000D+02  0.4833072195D+00
      0.2305150000D+02  0.3380741536D+00
 SP   6 1.00       0.000000000000
      0.4237350000D+03 -0.2376770499D-02  0.4061009982D-02
      0.1007100000D+03 -0.3169300665D-01  0.3068129986D-01
      0.3215990000D+02 -0.1133170238D+00  0.1304519994D+00
      0.1180790000D+02  0.5609001177D-01  0.3272049985D+00
      0.4631100000D+01  0.5922551243D+00  0.4528509980D+00
      0.1870250000D+01  0.4550060955D+00  0.2560419989D+00
 SP   3 1.00       0.000000000000
      0.2615840000D+01 -0.2503731142D+00 -0.1451048955D-01
      0.9221670000D+00  0.6695676310D-01  0.3102627765D+00
      0.3412870000D+00  0.1054506269D+01  0.7544824565D+00
 SP   1 1.00       0.000000000000
      0.1171670000D+00  0.1000000000D+01  0.1000000000D+01
 D   1 1.00       0.000000000000
      0.6500000000D+00  0.1000000000D+01
 ****
     18 0
 S   6 1.00       0.000000000000
      0.2191710000D+05  0.1869240849D-02
      0.3301490000D+04  0.1423030646D-01
      0.7541460000D+03  0.6969623166D-01
      0.2127110000D+03  0.2384871083D+00
      0.6798960000D+02  0.4833072195D+00
      0.2305150000D+02  0.3380741536D+00
 SP   6 1.00       0.000000000000
      0.4237350000D+03 -0.2376770499D-02  0.4061009982D-02
      0.1007100000D+03 -0.3169300665D-01  0.3068129986D-01
      0.3215990000D+02 -0.1133170238D+00  0.1304519994D+00
      0.1180790000D+02  0.5609001177D-01  0.3272049985D+00
      0.4631100000D+01  0.5922551243D+00  0.4528509980D+00
      0.1870250000D+01  0.4550060955D+00  0.2560419989D+00
 SP   3 1.00       0.000000000000
      0.2615840000D+01 -0.2503731142D+00 -0.1451048955D-01
      0.9221670000D+00  0.6695676310D-01  0.3102627765D+00
      0.3412870000D+00  0.1054506269D+01  0.7544824565D+00
 SP   1 1.00       0.000000000000
      0.1171670000D+00  0.1000000000D+01  0.1000000000D+01
 D   1 1.00       0.000000000000
      0.6500000000D+00  0.1000000000D+01
 ****
     19 0
 S   6 1.00       0.000000000000
      0.2191710000D+05  0.1869240849D-02
      0.3301490000D+04  0.1423030646D-01
      0.7541460000D+03  0.6969623166D-01
      0.2127110000D+03  0.2384871083D+00
      0.6798960000D+02  0.4833072195D+00
      0.2305150000D+02  0.3380741536D+00
 SP   6 1.00       0.000000000000
      0.4237350000D+03 -0.2376770499D-02  0.4061009982D-02
      0.1007100000D+03 -0.3169300665D-01  0.3068129986D-01
      0.3215990000D+02 -0.1133170238D+00  0.1304519994D+00
      0.1180790000D+02  0.5609001177D-01  0.3272049985D+00
      0.4631100000D+01  0.5922551243D+00  0.4528509980D+00
      0.1870250000D+01  0.4550060955D+00  0.2560419989D+00
 SP   3 1.00       0.000000000000
      0.2615840000D+01 -0.2503731142D+00 -0.1451048955D-01
      0.9221670000D+00  0.6695676310D-01  0.3102627765D+00
      0.3412870000D+00  0.1054506269D+01  0.7544824565D+00
 SP   1 1.00       0.000000000000
      0.1171670000D+00  0.1000000000D+01  0.1000000000D+01
 D   1 1.00       0.000000000000
      0.6500000000D+00  0.1000000000D+01
 ****
     20 0
 S   6 1.00       0.000000000000
      0.2191710000D+05  0.1869240849D-02
      0.3301490000D+04  0.1423030646D-01
      0.7541460000D+03  0.6969623166D-01
      0.2127110000D+03  0.2384871083D+00
      0.6798960000D+02  0.4833072195D+00
      0.2305150000D+02  0.3380741536D+00
 SP   6 1.00       0.000000000000
      0.4237350000D+03 -0.2376770499D-02  0.4061009982D-02
      0.1007100000D+03 -0.3169300665D-01  0.3068129986D-01
      0.3215990000D+02 -0.1133170238D+00  0.1304519994D+00
      0.1180790000D+02  0.5609001177D-01  0.3272049985D+00
      0.4631100000D+01  0.5922551243D+00  0.4528509980D+00
      0.1870250000D+01  0.4550060955D+00  0.2560419989D+00
 SP   3 1.00       0.000000000000
      0.2615840000D+01 -0.2503731142D+00 -0.1451048955D-01
      0.9221670000D+00  0.6695676310D-01  0.3102627765D+00
      0.3412870000D+00  0.1054506269D+01  0.7544824565D+00
 SP   1 1.00       0.000000000000
      0.1171670000D+00  0.1000000000D+01  0.1000000000D+01
 D   1 1.00       0.000000000000
      0.6500000000D+00  0.1000000000D+01
 ****
     21 0
 S   6 1.00       0.000000000000
      0.2191710000D+05  0.1869240849D-02
      0.3301490000D+04  0.1423030646D-01
      0.7541460000D+03  0.6969623166D-01
      0.2127110000D+03  0.2384871083D+00
      0.6798960000D+02  0.4833072195D+00
      0.2305150000D+02  0.3380741536D+00
 SP   6 1.00       0.000000000000
      0.4237350000D+03 -0.2376770499D-02  0.4061009982D-02
      0.1007100000D+03 -0.3169300665D-01  0.3068129986D-01
      0.3215990000D+02 -0.1133170238D+00  0.1304519994D+00
      0.1180790000D+02  0.5609001177D-01  0.3272049985D+00
      0.4631100000D+01  0.5922551243D+00  0.4528509980D+00
      0.1870250000D+01  0.4550060955D+00  0.2560419989D+00
 SP   3 1.00       0.000000000000
      0.2615840000D+01 -0.2503731142D+00 -0.1451048955D-01
      0.9221670000D+00  0.6695676310D-01  0.3102627765D+00
      0.3412870000D+00  0.1054506269D+01  0.7544824565D+00
 SP   1 1.00       0.000000000000
      0.1171670000D+00  0.1000000000D+01  0.1000000000D+01
 D   1 1.00       0.000000000000
      0.6500000000D+00  0.1000000000D+01
 ****
     22 0
 S   6 1.00       0.000000000000
      0.2191710000D+05  0.1869240849D-02
      0.3301490000D+04  0.1423030646D-01
      0.7541460000D+03  0.6969623166D-01
      0.2127110000D+03  0.2384871083D+00
      0.6798960000D+02  0.4833072195D+00
      0.2305150000D+02  0.3380741536D+00
 SP   6 1.00       0.000000000000
      0.4237350000D+03 -0.2376770499D-02  0.4061009982D-02
      0.1007100000D+03 -0.3169300665D-01  0.3068129986D-01
      0.3215990000D+02 -0.1133170238D+00  0.1304519994D+00
      0.1180790000D+02  0.5609001177D-01  0.3272049985D+00
      0.4631100000D+01  0.5922551243D+00  0.4528509980D+00
      0.1870250000D+01  0.4550060955D+00  0.2560419989D+00
 SP   3 1.00       0.000000000000
      0.2615840000D+01 -0.2503731142D+00 -0.1451048955D-01
      0.9221670000D+00  0.6695676310D-01  0.3102627765D+00
      0.3412870000D+00  0.1054506269D+01  0.7544824565D+00
 SP   1 1.00       0.000000000000
      0.1171670000D+00  0.1000000000D+01  0.1000000000D+01
 D   1 1.00       0.000000000000
      0.6500000000D+00  0.1000000000D+01
 ****
     23 0
 S   6 1.00       0.000000000000
      0.2191710000D+05  0.1869240849D-02
      0.3301490000D+04  0.1423030646D-01
      0.7541460000D+03  0.6969623166D-01
      0.2127110000D+03  0.2384871083D+00
      0.6798960000D+02  0.4833072195D+00
      0.2305150000D+02  0.3380741536D+00
 SP   6 1.00       0.000000000000
      0.4237350000D+03 -0.2376770499D-02  0.4061009982D-02
      0.1007100000D+03 -0.3169300665D-01  0.3068129986D-01
      0.3215990000D+02 -0.1133170238D+00  0.1304519994D+00
      0.1180790000D+02  0.5609001177D-01  0.3272049985D+00
      0.4631100000D+01  0.5922551243D+00  0.4528509980D+00
      0.1870250000D+01  0.4550060955D+00  0.2560419989D+00
 SP   3 1.00       0.000000000000
      0.2615840000D+01 -0.2503731142D+00 -0.1451048955D-01
      0.9221670000D+00  0.6695676310D-01  0.3102627765D+00
      0.3412870000D+00  0.1054506269D+01  0.7544824565D+00
 SP   1 1.00       0.000000000000
      0.1171670000D+00  0.1000000000D+01  0.1000000000D+01
 D   1 1.00       0.000000000000
      0.6500000000D+00  0.1000000000D+01
 ****
     24 0
 S   6 1.00       0.000000000000
      0.2191710000D+05  0.1869240849D-02
      0.3301490000D+04  0.1423030646D-01
      0.7541460000D+03  0.6969623166D-01
      0.2127110000D+03  0.2384871083D+00
      0.6798960000D+02  0.4833072195D+00
      0.2305150000D+02  0.3380741536D+00
 SP   6 1.00       0.000000000000
      0.4237350000D+03 -0.2376770499D-02  0.4061009982D-02
      0.1007100000D+03 -0.3169300665D-01  0.3068129986D-01
      0.3215990000D+02 -0.1133170238D+00  0.1304519994D+00
      0.1180790000D+02  0.5609001177D-01  0.3272049985D+00
      0.4631100000D+01  0.5922551243D+00  0.4528509980D+00
      0.1870250000D+01  0.4550060955D+00  0.2560419989D+00
 SP   3 1.00       0.000000000000
      0.2615840000D+01 -0.2503731142D+00 -0.1451048955D-01
      0.9221670000D+00  0.6695676310D-01  0.3102627765D+00
      0.3412870000D+00  0.1054506269D+01  0.7544824565D+00
 SP   1 1.00       0.000000000000
      0.1171670000D+00  0.1000000000D+01  0.1000000000D+01
 D   1 1.00       0.000000000000
      0.6500000000D+00  0.1000000000D+01
 ****
     25 0
 S   6 1.00       0.000000000000
      0.2191710000D+05  0.1869240849D-02
      0.3301490000D+04  0.1423030646D-01
      0.7541460000D+03  0.6969623166D-01
      0.2127110000D+03  0.2384871083D+00
      0.6798960000D+02  0.4833072195D+00
      0.2305150000D+02  0.3380741536D+00
 SP   6 1.00       0.000000000000
      0.4237350000D+03 -0.2376770499D-02  0.4061009982D-02
      0.1007100000D+03 -0.3169300665D-01  0.3068129986D-01
      0.3215990000D+02 -0.1133170238D+00  0.1304519994D+00
      0.1180790000D+02  0.5609001177D-01  0.3272049985D+00
      0.4631100000D+01  0.5922551243D+00  0.4528509980D+00
      0.1870250000D+01  0.4550060955D+00  0.2560419989D+00
 SP   3 1.00       0.000000000000
      0.2615840000D+01 -0.2503731142D+00 -0.1451048955D-01
      0.9221670000D+00  0.6695676310D-01  0.3102627765D+00
      0.3412870000D+00  0.1054506269D+01  0.7544824565D+00
 SP   1 1.00       0.000000000000
      0.1171670000D+00  0.1000000000D+01  0.1000000000D+01
 D   1 1.00       0.000000000000
      0.6500000000D+00  0.1000000000D+01
 ****
     26 0
 S   6 1.00       0.000000000000
      0.2191710000D+05  0.1869240849D-02
      0.3301490000D+04  0.1423030646D-01
      0.7541460000D+03  0.6969623166D-01
      0.2127110000D+03  0.2384871083D+00
      0.6798960000D+02  0.4833072195D+00
      0.2305150000D+02  0.3380741536D+00
 SP   6 1.00       0.000000000000
      0.4237350000D+03 -0.2376770499D-02  0.4061009982D-02
      0.1007100000D+03 -0.3169300665D-01  0.3068129986D-01
      0.3215990000D+02 -0.1133170238D+00  0.1304519994D+00
      0.1180790000D+02  0.5609001177D-01  0.3272049985D+00
      0.4631100000D+01  0.5922551243D+00  0.4528509980D+00
      0.1870250000D+01  0.4550060955D+00  0.2560419989D+00
 SP   3 1.00       0.000000000000
      0.2615840000D+01 -0.2503731142D+00 -0.1451048955D-01
      0.9221670000D+00  0.6695676310D-01  0.3102627765D+00
      0.3412870000D+00  0.1054506269D+01  0.7544824565D+00
 SP   1 1.00       0.000000000000
      0.1171670000D+00  0.1000000000D+01  0.1000000000D+01
 D   1 1.00       0.000000000000
      0.6500000000D+00  0.1000000000D+01
 ****
     27 0
 S   6 1.00       0.000000000000
      0.2191710000D+05  0.1869240849D-02
      0.3301490000D+04  0.1423030646D-01
      0.7541460000D+03  0.6969623166D-01
      0.2127110000D+03  0.2384871083D+00
      0.6798960000D+02  0.4833072195D+00
      0.2305150000D+02  0.3380741536D+00
 SP   6 1.00       0.000000000000
      0.4237350000D+03 -0.2376770499D-02  0.4061009982D-02
      0.1007100000D+03 -0.3169300665D-01  0.3068129986D-01
      0.3215990000D+02 -0.1133170238D+00  0.1304519994D+00
      0.1180790000D+02  0.5609001177D-01  0.3272049985D+00
      0.4631100000D+01  0.5922551243D+00  0.4528509980D+00
      0.1870250000D+01  0.4550060955D+00  0.2560419989D+00
 SP   3 1.00       0.000000000000
      0.2615840000D+01 -0.2503731142D+00 -0.1451048955D-01
      0.9221670000D+00  0.6695676310D-01  0.3102627765D+00
      0.3412870000D+00  0.1054506269D+01  0.7544824565D+00
 SP   1 1.00       0.000000000000
      0.1171670000D+00  0.1000000000D+01  0.1000000000D+01
 D   1 1.00       0.000000000000
      0.6500000000D+00  0.1000000000D+01
 ****
     28 0
 S   6 1.00       0.000000000000
      0.2191710000D+05  0.1869240849D-02
      0.3301490000D+04  0.1423030646D-01
      0.7541460000D+03  0.6969623166D-01
      0.2127110000D+03  0.2384871083D+00
      0.6798960000D+02  0.4833072195D+00
      0.2305150000D+02  0.3380741536D+00
 SP   6 1.00       0.000000000000
      0.4237350000D+03 -0.2376770499D-02  0.4061009982D-02
      0.1007100000D+03 -0.3169300665D-01  0.3068129986D-01
      0.3215990000D+02 -0.1133170238D+00  0.1304519994D+00
      0.1180790000D+02  0.5609001177D-01  0.3272049985D+00
      0.4631100000D+01  0.5922551243D+00  0.4528509980D+00
      0.1870250000D+01  0.4550060955D+00  0.2560419989D+00
 SP   3 1.00       0.000000000000
      0.2615840000D+01 -0.2503731142D+00 -0.1451048955D-01
      0.9221670000D+00  0.6695676310D-01  0.3102627765D+00
      0.3412870000D+00  0.1054506269D+01  0.7544824565D+00
 SP   1 1.00       0.000000000000
      0.1171670000D+00  0.1000000000D+01  0.1000000000D+01
 D   1 1.00       0.000000000000
      0.6500000000D+00  0.1000000000D+01
 ****
     29 0
 S   6 1.00       0.000000000000
      0.3047524880D+04  0.1834737132D-02
      0.4573695180D+03  0.1403732281D-01
      0.1039486850D+03  0.6884262226D-01
      0.2921015530D+02  0.2321844432D+00
      0.9286662960D+01  0.4679413484D+00
      0.3163926960D+01  0.3623119853D+00
 SP   3 1.00       0.000000000000
      0.7868272350D+01 -0.1193324198D+00  0.6899906659D-01
      0.1881288540D+01 -0.1608541517D+00  0.3164239610D+00
      0.5442492580D+00  0.1143456438D+01  0.7443082909D+00
 SP   1 1.00       0.000000000000
      0.1687144782D+00  0.1000000000D+01  0.1000000000D+01
 D   1 1.00       0.000000000000
      0.8000000000D+00  0.1000000000D+01
 ****
     30 0
 S   6 1.00       0.000000000000
      0.3047524880D+04  0.1834737132D-02
      0.4573695180D+03  0.1403732281D-01
      0.1039486850D+03  0.6884262226D-01
      0.2921015530D+02  0.2321844432D+00
      0.9286662960D+01  0.4679413484D+00
      0.3163926960D+01  0.3623119853D+00
 SP   3 1.00       0.000000000000
      0.7868272350D+01 -0.1193324198D+00  0.6899906659D-01
      0.1881288540D+01 -0.1608541517D+00  0.3164239610D+00
      0.5442492580D+00  0.1143456438D+01  0.7443082909D+00
 SP   1 1.00       0.000000000000
      0.1687144782D+00  0.1000000000D+01  0.1000000000D+01
 D   1 1.00       0.000000000000
      0.8000000000D+00  0.1000000000D+01
 ****
     31 0
 S   6 1.00       0.000000000000
      0.3047524880D+04  0.1834737132D-02
      0.4573695180D+03  0.1403732281D-01
      0.1039486850D+03  0.6884262226D-01
      0.2921015530D+02  0.2321844432D+00
      0.9286662960D+01  0.4679413484D+00
      0.3163926960D+01  0.3623119853D+00
 SP   3 1.00       0.000000000000
      0.7868272350D+01 -0.1193324198D+00  0.6899906659D-01
      0.1881288540D+01 -0.1608541517D+00  0.3164239610D+00
      0.5442492580D+00  0.1143456438D+01  0.7443082909D+00
 SP   1 1.00       0.000000000000
      0.1687144782D+00  0.1000000000D+01  0.1000000000D+01
 D   1 1.00       0.000000000000
      0.8000000000D+00  0.1000000000D+01
 ****
     32 0
 S   6 1.00       0.000000000000
      0.3047524880D+04  0.1834737132D-02
      0.4573695180D+03  0.1403732281D-01
      0.1039486850D+03  0.6884262226D-01
      0.2921015530D+02  0.2321844432D+00
      0.9286662960D+01  0.4679413484D+00
      0.3163926960D+01  0.3623119853D+00
 SP   3 1.00       0.000000000000
      0.7868272350D+01 -0.1193324198D+00  0.6899906659D-01
      0.1881288540D+01 -0.1608541517D+00  0.3164239610D+00
      0.5442492580D+00  0.1143456438D+01  0.7443082909D+00
 SP   1 1.00       0.000000000000
      0.1687144782D+00  0.1000000000D+01  0.1000000000D+01
 D   1 1.00       0.000000000000
      0.8000000000D+00  0.1000000000D+01
 ****
     33 0
 S   6 1.00       0.000000000000
      0.3047524880D+04  0.1834737132D-02
      0.4573695180D+03  0.1403732281D-01
      0.1039486850D+03  0.6884262226D-01
      0.2921015530D+02  0.2321844432D+00
      0.9286662960D+01  0.4679413484D+00
      0.3163926960D+01  0.3623119853D+00
 SP   3 1.00       0.000000000000
      0.7868272350D+01 -0.1193324198D+00  0.6899906659D-01
      0.1881288540D+01 -0.1608541517D+00  0.3164239610D+00
      0.5442492580D+00  0.1143456438D+01  0.7443082909D+00
 SP   1 1.00       0.000000000000
      0.1687144782D+00  0.1000000000D+01  0.1000000000D+01
 D   1 1.00       0.000000000000
      0.8000000000D+00  0.1000000000D+01
 ****
     34 0
 S   6 1.00       0.000000000000
      0.3047524880D+04  0.1834737132D-02
      0.4573695180D+03  0.1403732281D-01
      0.1039486850D+03  0.6884262226D-01
      0.2921015530D+02  0.2321844432D+00
      0.9286662960D+01  0.4679413484D+00
      0.3163926960D+01  0.3623119853D+00
 SP   3 1.00       0.000000000000
      0.7868272350D+01 -0.1193324198D+00  0.6899906659D-01
      0.1881288540D+01 -0.1608541517D+00  0.3164239610D+00
      0.5442492580D+00  0.1143456438D+01  0.7443082909D+00
 SP   1 1.00       0.000000000000
      0.1687144782D+00  0.1000000000D+01  0.1000000000D+01
 D   1 1.00       0.000000000000
      0.8000000000D+00  0.1000000000D+01
 ****
     35 0
 S   6 1.00       0.000000000000
      0.3047524880D+04  0.1834737132D-02
      0.4573695180D+03  0.1403732281D-01
      0.1039486850D+03  0.6884262226D-01
      0.2921015530D+02  0.2321844432D+00
      0.9286662960D+01  0.4679413484D+00
      0.3163926960D+01  0.3623119853D+00
 SP   3 1.00       0.000000000000
      0.7868272350D+01 -0.1193324198D+00  0.6899906659D-01
      0.1881288540D+01 -0.1608541517D+00  0.3164239610D+00
      0.5442492580D+00  0.1143456438D+01  0.7443082909D+00
 SP   1 1.00       0.000000000000
      0.1687144782D+00  0.1000000000D+01  0.1000000000D+01
 D   1 1.00       0.000000000000
      0.8000000000D+00  0.1000000000D+01
 ****
     36 0
 S   6 1.00       0.000000000000
      0.3047524880D+04  0.1834737132D-02
      0.4573695180D+03  0.1403732281D-01
      0.1039486850D+03  0.6884262226D-01
      0.2921015530D+02  0.2321844432D+00
      0.9286662960D+01  0.4679413484D+00
      0.3163926960D+01  0.3623119853D+00
 SP   3 1.00       0.000000000000
      0.7868272350D+01 -0.1193324198D+00  0.6899906659D-01
      0.1881288540D+01 -0.1608541517D+00  0.3164239610D+00
      0.5442492580D+00  0.1143456438D+01  0.7443082909D+00
 SP   1 1.00       0.000000000000
      0.1687144782D+00  0.1000000000D+01  0.1000000000D+01
 D   1 1.00       0.000000000000
      0.8000000000D+00  0.1000000000D+01
 ****
     37 0
 S   6 1.00       0.000000000000
      0.3047524880D+04  0.1834737132D-02
      0.4573695180D+03  0.1403732281D-01
      0.1039486850D+03  0.6884262226D-01
      0.2921015530D+02  0.2321844432D+00
      0.9286662960D+01  0.4679413484D+00
      0.3163926960D+01  0.3623119853D+00
 SP   3 1.00       0.000000000000
      0.7868272350D+01 -0.1193324198D+00  0.6899906659D-01
      0.1881288540D+01 -0.1608541517D+00  0.3164239610D+00
      0.5442492580D+00  0.1143456438D+01  0.7443082909D+00
 SP   1 1.00       0.000000000000
      0.1687144782D+00  0.1000000000D+01  0.1000000000D+01
 D   1 1.00       0.000000000000
      0.8000000000D+00  0.1000000000D+01
 ****
     38 0
 S   6 1.00       0.000000000000
      0.3047524880D+04  0.1834737132D-02
      0.4573695180D+03  0.1403732281D-01
      0.1039486850D+03  0.6884262226D-01
      0.2921015530D+02  0.2321844432D+00
      0.9286662960D+01  0.4679413484D+00
      0.3163926960D+01  0.3623119853D+00
 SP   3 1.00       0.000000000000
      0.7868272350D+01 -0.1193324198D+00  0.6899906659D-01
      0.1881288540D+01 -0.1608541517D+00  0.3164239610D+00
      0.5442492580D+00  0.1143456438D+01  0.7443082909D+00
 SP   1 1.00       0.000000000000
      0.1687144782D+00  0.1000000000D+01  0.1000000000D+01
 D   1 1.00       0.000000000000
      0.8000000000D+00  0.1000000000D+01
 ****
     39 0
 S   6 1.00       0.000000000000
      0.3047524880D+04  0.1834737132D-02
      0.4573695180D+03  0.1403732281D-01
      0.1039486850D+03  0.6884262226D-01
      0.2921015530D+02  0.2321844432D+00
      0.9286662960D+01  0.4679413484D+00
      0.3163926960D+01  0.3623119853D+00
 SP   3 1.00       0.000000000000
      0.7868272350D+01 -0.1193324198D+00  0.6899906659D-01
      0.1881288540D+01 -0.1608541517D+00  0.3164239610D+00
      0.5442492580D+00  0.1143456438D+01  0.7443082909D+00
 SP   1 1.00       0.000000000000
      0.1687144782D+00  0.1000000000D+01  0.1000000000D+01
 D   1 1.00       0.000000000000
      0.8000000000D+00  0.1000000000D+01
 ****
     40 0
 S   6 1.00       0.000000000000
      0.3047524880D+04  0.1834737132D-02
      0.4573695180D+03  0.1403732281D-01
      0.1039486850D+03  0.6884262226D-01
      0.2921015530D+02  0.2321844432D+00
      0.9286662960D+01  0.4679413484D+00
      0.3163926960D+01  0.3623119853D+00
 SP   3 1.00       0.000000000000
      0.7868272350D+01 -0.1193324198D+00  0.6899906659D-01
      0.1881288540D+01 -0.1608541517D+00  0.3164239610D+00
      0.5442492580D+00  0.1143456438D+01  0.7443082909D+00
 SP   1 1.00       0.000000000000
      0.1687144782D+00  0.1000000000D+01  0.1000000000D+01
 D   1 1.00       0.000000000000
      0.8000000000D+00  0.1000000000D+01
 ****
     41 0
 S   6 1.00       0.000000000000
      0.3047524880D+04  0.1834737132D-02
      0.4573695180D+03  0.1403732281D-01
      0.1039486850D+03  0.6884262226D-01
      0.2921015530D+02  0.2321844432D+00
      0.9286662960D+01  0.4679413484D+00
      0.3163926960D+01  0.3623119853D+00
 SP   3 1.00       0.000000000000
      0.7868272350D+01 -0.1193324198D+00  0.6899906659D-01
      0.1881288540D+01 -0.1608541517D+00  0.3164239610D+00
      0.5442492580D+00  0.1143456438D+01  0.7443082909D+00
 SP   1 1.00       0.000000000000
      0.1687144782D+00  0.1000000000D+01  0.1000000000D+01
 D   1 1.00       0.000000000000
      0.8000000000D+00  0.1000000000D+01
 ****
     42 0
 S   3 1.00       0.000000000000
      0.1873113696D+02  0.3349460434D-01
      0.2825394365D+01  0.2347269535D+00
      0.6401216923D+00  0.8137573261D+00
 S   1 1.00       0.000000000000
      0.1612777588D+00  0.1000000000D+01
 P   1 1.00       0.000000000000
      0.1100000000D+01  0.1000000000D+01
 ****
     43 0
 S   3 1.00       0.000000000000
      0.1873113696D+02  0.3349460434D-01
      0.2825394365D+01  0.2347269535D+00
      0.6401216923D+00  0.8137573261D+00
 S   1 1.00       0.000000000000
      0.1612777588D+00  0.1000000000D+01
 P   1 1.00       0.000000000000
      0.1100000000D+01  0.1000000000D+01
 ****
     44 0
 S   3 1.00       0.000000000000
      0.1873113696D+02  0.3349460434D-01
      0.2825394365D+01  0.2347269535D+00
      0.6401216923D+00  0.8137573261D+00
 S   1 1.00       0.000000000000
      0.1612777588D+00  0.1000000000D+01
 P   1 1.00       0.000000000000
      0.1100000000D+01  0.1000000000D+01
 ****
     45 0
 S   3 1.00       0.000000000000
      0.1873113696D+02  0.3349460434D-01
      0.2825394365D+01  0.2347269535D+00
      0.6401216923D+00  0.8137573261D+00
 S   1 1.00       0.000000000000
      0.1612777588D+00  0.1000000000D+01
 P   1 1.00       0.000000000000
      0.1100000000D+01  0.1000000000D+01
 ****
     46 0
 S   3 1.00       0.000000000000
      0.1873113696D+02  0.3349460434D-01
      0.2825394365D+01  0.2347269535D+00
      0.6401216923D+00  0.8137573261D+00
 S   1 1.00       0.000000000000
      0.1612777588D+00  0.1000000000D+01
 P   1 1.00       0.000000000000
      0.1100000000D+01  0.1000000000D+01
 ****
     47 0
 S   3 1.00       0.000000000000
      0.1873113696D+02  0.3349460434D-01
      0.2825394365D+01  0.2347269535D+00
      0.6401216923D+00  0.8137573261D+00
 S   1 1.00       0.000000000000
      0.1612777588D+00  0.1000000000D+01
 P   1 1.00       0.000000000000
      0.1100000000D+01  0.1000000000D+01
 ****
     48 0
 S   3 1.00       0.000000000000
      0.1873113696D+02  0.3349460434D-01
      0.2825394365D+01  0.2347269535D+00
      0.6401216923D+00  0.8137573261D+00
 S   1 1.00       0.000000000000
      0.1612777588D+00  0.1000000000D+01
 P   1 1.00       0.000000000000
      0.1100000000D+01  0.1000000000D+01
 ****
     49 0
 S   3 1.00       0.000000000000
      0.1873113696D+02  0.3349460434D-01
      0.2825394365D+01  0.2347269535D+00
      0.6401216923D+00  0.8137573261D+00
 S   1 1.00       0.000000000000
      0.1612777588D+00  0.1000000000D+01
 P   1 1.00       0.000000000000
      0.1100000000D+01  0.1000000000D+01
 ****
     50 0
 S   3 1.00       0.000000000000
      0.1873113696D+02  0.3349460434D-01
      0.2825394365D+01  0.2347269535D+00
      0.6401216923D+00  0.8137573261D+00
 S   1 1.00       0.000000000000
      0.1612777588D+00  0.1000000000D+01
 P   1 1.00       0.000000000000
      0.1100000000D+01  0.1000000000D+01
 ****
     51 0
 S   3 1.00       0.000000000000
      0.1873113696D+02  0.3349460434D-01
      0.2825394365D+01  0.2347269535D+00
      0.6401216923D+00  0.8137573261D+00
 S   1 1.00       0.000000000000
      0.1612777588D+00  0.1000000000D+01
 P   1 1.00       0.000000000000
      0.1100000000D+01  0.1000000000D+01
 ****
     52 0
 S   3 1.00       0.000000000000
      0.1873113696D+02  0.3349460434D-01
      0.2825394365D+01  0.2347269535D+00
      0.6401216923D+00  0.8137573261D+00
 S   1 1.00       0.000000000000
      0.1612777588D+00  0.1000000000D+01
 P   1 1.00       0.000000000000
      0.1100000000D+01  0.1000000000D+01
 ****
     53 0
 S   3 1.00       0.000000000000
      0.1873113696D+02  0.3349460434D-01
      0.2825394365D+01  0.2347269535D+00
      0.6401216923D+00  0.8137573261D+00
 S   1 1.00       0.000000000000
      0.1612777588D+00  0.1000000000D+01
 P   1 1.00       0.000000000000
      0.1100000000D+01  0.1000000000D+01
 ****
     54 0
 S   3 1.00       0.000000000000
      0.1873113696D+02  0.3349460434D-01
      0.2825394365D+01  0.2347269535D+00
      0.6401216923D+00  0.8137573261D+00
 S   1 1.00       0.000000000000
      0.1612777588D+00  0.1000000000D+01
 P   1 1.00       0.000000000000
      0.1100000000D+01  0.1000000000D+01
 ****
     55 0
 S   3 1.00       0.000000000000
      0.1873113696D+02  0.3349460434D-01
      0.2825394365D+01  0.2347269535D+00
      0.6401216923D+00  0.8137573261D+00
 S   1 1.00       0.000000000000
      0.1612777588D+00  0.1000000000D+01
 P   1 1.00       0.000000000000
      0.1100000000D+01  0.1000000000D+01
 ****
     56 0
 S   3 1.00       0.000000000000
      0.1873113696D+02  0.3349460434D-01
      0.2825394365D+01  0.2347269535D+00
      0.6401216923D+00  0.8137573261D+00
 S   1 1.00       0.000000000000
      0.1612777588D+00  0.1000000000D+01
 P   1 1.00       0.000000000000
      0.1100000000D+01  0.1000000000D+01
 ****
     57 0
 S   3 1.00       0.000000000000
      0.1873113696D+02  0.3349460434D-01
      0.2825394365D+01  0.2347269535D+00
      0.6401216923D+00  0.8137573261D+00
 S   1 1.00       0.000000000000
      0.1612777588D+00  0.1000000000D+01
 P   1 1.00       0.000000000000
      0.1100000000D+01  0.1000000000D+01
 ****
     58 0
 S   3 1.00       0.000000000000
      0.1873113696D+02  0.3349460434D-01
      0.2825394365D+01  0.2347269535D+00
      0.6401216923D+00  0.8137573261D+00
 S   1 1.00       0.000000000000
      0.1612777588D+00  0.1000000000D+01
 P   1 1.00       0.000000000000
      0.1100000000D+01  0.1000000000D+01
 ****
     59 0
 S   3 1.00       0.000000000000
      0.1873113696D+02  0.3349460434D-01
      0.2825394365D+01  0.2347269535D+00
      0.6401216923D+00  0.8137573261D+00
 S   1 1.00       0.000000000000
      0.1612777588D+00  0.1000000000D+01
 P   1 1.00       0.000000000000
      0.1100000000D+01  0.1000000000D+01
 ****
     60 0
 S   3 1.00       0.000000000000
      0.1873113696D+02  0.3349460434D-01
      0.2825394365D+01  0.2347269535D+00
      0.6401216923D+00  0.8137573261D+00
 S   1 1.00       0.000000000000
      0.1612777588D+00  0.1000000000D+01
 P   1 1.00       0.000000000000
      0.1100000000D+01  0.1000000000D+01
 ****
     61 0
 S   3 1.00       0.000000000000
      0.1873113696D+02  0.3349460434D-01
      0.2825394365D+01  0.2347269535D+00
      0.6401216923D+00  0.8137573261D+00
 S   1 1.00       0.000000000000
      0.1612777588D+00  0.1000000000D+01
 P   1 1.00       0.000000000000
      0.1100000000D+01  0.1000000000D+01
 ****
     62 0
 S   3 1.00       0.000000000000
      0.1873113696D+02  0.3349460434D-01
      0.2825394365D+01  0.2347269535D+00
      0.6401216923D+00  0.8137573261D+00
 S   1 1.00       0.000000000000
      0.1612777588D+00  0.1000000000D+01
 P   1 1.00       0.000000000000
      0.1100000000D+01  0.1000000000D+01
 ****
     63 0
 S   3 1.00       0.000000000000
      0.1873113696D+02  0.3349460434D-01
      0.2825394365D+01  0.2347269535D+00
      0.6401216923D+00  0.8137573261D+00
 S   1 1.00       0.000000000000
      0.1612777588D+00  0.1000000000D+01
 P   1 1.00       0.000000000000
      0.1100000000D+01  0.1000000000D+01
 ****
     64 0
 S   3 1.00       0.000000000000
      0.1873113696D+02  0.3349460434D-01
      0.2825394365D+01  0.2347269535D+00
      0.6401216923D+00  0.8137573261D+00
 S   1 1.00       0.000000000000
      0.1612777588D+00  0.1000000000D+01
 P   1 1.00       0.000000000000
      0.1100000000D+01  0.1000000000D+01
 ****
     65 0
 S   3 1.00       0.000000000000
      0.1873113696D+02  0.3349460434D-01
      0.2825394365D+01  0.2347269535D+00
      0.6401216923D+00  0.8137573261D+00
 S   1 1.00       0.000000000000
      0.1612777588D+00  0.1000000000D+01
 P   1 1.00       0.000000000000
      0.1100000000D+01  0.1000000000D+01
 ****
     66 0
 S   3 1.00       0.000000000000
      0.1873113696D+02  0.3349460434D-01
      0.2825394365D+01  0.2347269535D+00
      0.6401216923D+00  0.8137573261D+00
 S   1 1.00       0.000000000000
      0.1612777588D+00  0.1000000000D+01
 P   1 1.00       0.000000000000
      0.1100000000D+01  0.1000000000D+01
 ****
     67 0
 S   3 1.00       0.000000000000
      0.1873113696D+02  0.3349460434D-01
      0.2825394365D+01  0.2347269535D+00
      0.6401216923D+00  0.8137573261D+00
 S   1 1.00       0.000000000000
      0.1612777588D+00  0.1000000000D+01
 P   1 1.00       0.000000000000
      0.1100000000D+01  0.1000000000D+01
 ****
     68 0
 S   3 1.00       0.000000000000
      0.1873113696D+02  0.3349460434D-01
      0.2825394365D+01  0.2347269535D+00
      0.6401216923D+00  0.8137573261D+00
 S   1 1.00       0.000000000000
      0.1612777588D+00  0.1000000000D+01
 P   1 1.00       0.000000000000
      0.1100000000D+01  0.1000000000D+01
 ****
     69 0
 S   3 1.00       0.000000000000
      0.1873113696D+02  0.3349460434D-01
      0.2825394365D+01  0.2347269535D+00
      0.6401216923D+00  0.8137573261D+00
 S   1 1.00       0.000000000000
      0.1612777588D+00  0.1000000000D+01
 P   1 1.00       0.000000000000
      0.1100000000D+01  0.1000000000D+01
 ****
     70 0
 S   3 1.00       0.000000000000
      0.1873113696D+02  0.3349460434D-01
      0.2825394365D+01  0.2347269535D+00
      0.6401216923D+00  0.8137573261D+00
 S   1 1.00       0.000000000000
      0.1612777588D+00  0.1000000000D+01
 P   1 1.00       0.000000000000
      0.1100000000D+01  0.1000000000D+01
 ****
     71 0
 S   3 1.00       0.000000000000
      0.1873113696D+02  0.3349460434D-01
      0.2825394365D+01  0.2347269535D+00
      0.6401216923D+00  0.8137573261D+00
 S   1 1.00       0.000000000000
      0.1612777588D+00  0.1000000000D+01
 P   1 1.00       0.000000000000
      0.1100000000D+01  0.1000000000D+01
 ****
     72 0
 S   3 1.00       0.000000000000
      0.1873113696D+02  0.3349460434D-01
      0.2825394365D+01  0.2347269535D+00
      0.6401216923D+00  0.8137573261D+00
 S   1 1.00       0.000000000000
      0.1612777588D+00  0.1000000000D+01
 P   1 1.00       0.000000000000
      0.1100000000D+01  0.1000000000D+01
 ****
     73 0
 S   3 1.00       0.000000000000
      0.1873113696D+02  0.3349460434D-01
      0.2825394365D+01  0.2347269535D+00
      0.6401216923D+00  0.8137573261D+00
 S   1 1.00       0.000000000000
      0.1612777588D+00  0.1000000000D+01
 P   1 1.00       0.000000000000
      0.1100000000D+01  0.1000000000D+01
 ****
     74 0
 S   3 1.00       0.000000000000
      0.1873113696D+02  0.3349460434D-01
      0.2825394365D+01  0.2347269535D+00
      0.6401216923D+00  0.8137573261D+00
 S   1 1.00       0.000000000000
      0.1612777588D+00  0.1000000000D+01
 P   1 1.00       0.000000000000
      0.1100000000D+01  0.1000000000D+01
 ****
     75 0
 S   3 1.00       0.000000000000
      0.1873113696D+02  0.3349460434D-01
      0.2825394365D+01  0.2347269535D+00
      0.6401216923D+00  0.8137573261D+00
 S   1 1.00       0.000000000000
      0.1612777588D+00  0.1000000000D+01
 P   1 1.00       0.000000000000
      0.1100000000D+01  0.1000000000D+01
 ****
     76 0
 S   3 1.00       0.000000000000
      0.1873113696D+02  0.3349460434D-01
      0.2825394365D+01  0.2347269535D+00
      0.6401216923D+00  0.8137573261D+00
 S   1 1.00       0.000000000000
      0.1612777588D+00  0.1000000000D+01
 P   1 1.00       0.000000000000
      0.1100000000D+01  0.1000000000D+01
 ****
     77 0
 S   3 1.00       0.000000000000
      0.1873113696D+02  0.3349460434D-01
      0.2825394365D+01  0.2347269535D+00
      0.6401216923D+00  0.8137573261D+00
 S   1 1.00       0.000000000000
      0.1612777588D+00  0.1000000000D+01
 P   1 1.00       0.000000000000
      0.1100000000D+01  0.1000000000D+01
 ****
     78 0
 S   3 1.00       0.000000000000
      0.1873113696D+02  0.3349460434D-01
      0.2825394365D+01  0.2347269535D+00
      0.6401216923D+00  0.8137573261D+00
 S   1 1.00       0.000000000000
      0.1612777588D+00  0.1000000000D+01
 P   1 1.00       0.000000000000
      0.1100000000D+01  0.1000000000D+01
 ****
     79 0
 S   3 1.00       0.000000000000
      0.1873113696D+02  0.3349460434D-01
      0.2825394365D+01  0.2347269535D+00
      0.6401216923D+00  0.8137573261D+00
 S   1 1.00       0.000000000000
      0.1612777588D+00  0.1000000000D+01
 P   1 1.00       0.000000000000
      0.1100000000D+01  0.1000000000D+01
 ****
     80 0
 S   3 1.00       0.000000000000
      0.1873113696D+02  0.3349460434D-01
      0.2825394365D+01  0.2347269535D+00
      0.6401216923D+00  0.8137573261D+00
 S   1 1.00       0.000000000000
      0.1612777588D+00  0.1000000000D+01
 P   1 1.00       0.000000000000
      0.1100000000D+01  0.1000000000D+01
 ****

 AO basis set (Overlap normalization):
 Atom Au1      Shell     1 S   3     bf    1 -     1          2.204053443134          1.568564841167          2.532901205839
      0.1595000000D+01 -0.3687038149D+00
      0.5327000000D+00 -0.1034828905D+01
      0.2826000000D+00  0.1945011640D+01
 Atom Au1      Shell     2 S   3     bf    2 -     2          2.204053443134          1.568564841167          2.532901205839
      0.2809000000D+01 -0.1202156130D+01
      0.1595000000D+01  0.1674158181D+01
      0.5327000000D+00  0.3526593382D+00
 Atom Au1      Shell     3 S   1     bf    3 -     3          2.204053443134          1.568564841167          2.532901205839
      0.5980000000D-01  0.1000000000D+01
 Atom Au1      Shell     4 P   3     bf    4 -     6          2.204053443134          1.568564841167          2.532901205839
      0.3684000000D+01 -0.2802680816D+00
      0.1666000000D+01  0.7818397487D+00
      0.5989000000D+00  0.4804775685D+00
 Atom Au1      Shell     5 P   2     bf    7 -     9          2.204053443134          1.568564841167          2.532901205839
      0.6838000000D+00 -0.9520777209D-01
      0.9770000000D-01  0.1029914698D+01
 Atom Au1      Shell     6 P   1     bf   10 -    12          2.204053443134          1.568564841167          2.532901205839
      0.2790000000D-01  0.1000000000D+01
 Atom Au1      Shell     7 D   2     bf   13 -    17          2.204053443134          1.568564841167          2.532901205839
      0.1287000000D+01  0.5844272770D+00
      0.4335000000D+00  0.5298160791D+00
 Atom Au1      Shell     8 D   1     bf   18 -    22          2.204053443134          1.568564841167          2.532901205839
      0.1396000000D+00  0.1000000000D+01
 Atom Au2      Shell     9 S   3     bf   23 -    23          2.280566698123         -3.402141377932          0.619617300569
      0.1595000000D+01 -0.3687038149D+00
      0.5327000000D+00 -0.1034828905D+01
      0.2826000000D+00  0.1945011640D+01
 Atom Au2      Shell    10 S   3     bf   24 -    24          2.280566698123         -3.402141377932          0.619617300569
      0.2809000000D+01 -0.1202156130D+01
      0.1595000000D+01  0.1674158181D+01
      0.5327000000D+00  0.3526593382D+00
 Atom Au2      Shell    11 S   1     bf   25 -    25          2.280566698123         -3.402141377932          0.619617300569
      0.5980000000D-01  0.1000000000D+01
 Atom Au2      Shell    12 P   3     bf   26 -    28          2.280566698123         -3.402141377932          0.619617300569
      0.3684000000D+01 -0.2802680816D+00
      0.1666000000D+01  0.7818397487D+00
      0.5989000000D+00  0.4804775685D+00
 Atom Au2      Shell    13 P   2     bf   29 -    31          2.280566698123         -3.402141377932          0.619617300569
      0.6838000000D+00 -0.9520777209D-01
      0.9770000000D-01  0.1029914698D+01
 Atom Au2      Shell    14 P   1     bf   32 -    34          2.280566698123         -3.402141377932          0.619617300569
      0.2790000000D-01  0.1000000000D+01
 Atom Au2      Shell    15 D   2     bf   35 -    39          2.280566698123         -3.402141377932          0.619617300569
      0.1287000000D+01  0.5844272770D+00
      0.4335000000D+00  0.5298160791D+00
 Atom Au2      Shell    16 D   1     bf   40 -    44          2.280566698123         -3.402141377932          0.619617300569
      0.1396000000D+00  0.1000000000D+01
 Atom Au3      Shell    17 S   3     bf   45 -    45         -0.823475259004          0.214507711909         -1.552881302789
      0.1595000000D+01 -0.3687038149D+00
      0.5327000000D+00 -0.1034828905D+01
      0.2826000000D+00  0.1945011640D+01
 Atom Au3      Shell    18 S   3     bf   46 -    46         -0.823475259004          0.214507711909         -1.552881302789
      0.2809000000D+01 -0.1202156130D+01
      0.1595000000D+01  0.1674158181D+01
      0.5327000000D+00  0.3526593382D+00
 Atom Au3      Shell    19 S   1     bf   47 -    47         -0.823475259004          0.214507711909         -1.552881302789
      0.5980000000D-01  0.1000000000D+01
 Atom Au3      Shell    20 P   3     bf   48 -    50         -0.823475259004          0.214507711909         -1.552881302789
      0.3684000000D+01 -0.2802680816D+00
      0.1666000000D+01  0.7818397487D+00
      0.5989000000D+00  0.4804775685D+00
 Atom Au3      Shell    21 P   2     bf   51 -    53         -0.823475259004          0.214507711909         -1.552881302789
      0.6838000000D+00 -0.9520777209D-01
      0.9770000000D-01  0.1029914698D+01
 Atom Au3      Shell    22 P   1     bf   54 -    56         -0.823475259004          0.214507711909         -1.552881302789
      0.2790000000D-01  0.1000000000D+01
 Atom Au3      Shell    23 D   2     bf   57 -    61         -0.823475259004          0.214507711909         -1.552881302789
      0.1287000000D+01  0.5844272770D+00
      0.4335000000D+00  0.5298160791D+00
 Atom Au3      Shell    24 D   1     bf   62 -    66         -0.823475259004          0.214507711909         -1.552881302789
      0.1396000000D+00  0.1000000000D+01
 Atom Au4      Shell    25 S   3     bf   67 -    67         -7.014221307722          2.775010041812         -4.413353980844
      0.1595000000D+01 -0.3687038149D+00
      0.5327000000D+00 -0.1034828905D+01
      0.2826000000D+00  0.1945011640D+01
 Atom Au4      Shell    26 S   3     bf   68 -    68         -7.014221307722          2.775010041812         -4.413353980844
      0.2809000000D+01 -0.1202156130D+01
      0.1595000000D+01  0.1674158181D+01
      0.5327000000D+00  0.3526593382D+00
 Atom Au4      Shell    27 S   1     bf   69 -    69         -7.014221307722          2.775010041812         -4.413353980844
      0.5980000000D-01  0.1000000000D+01
 Atom Au4      Shell    28 P   3     bf   70 -    72         -7.014221307722          2.775010041812         -4.413353980844
      0.3684000000D+01 -0.2802680816D+00
      0.1666000000D+01  0.7818397487D+00
      0.5989000000D+00  0.4804775685D+00
 Atom Au4      Shell    29 P   2     bf   73 -    75         -7.014221307722          2.775010041812         -4.413353980844
      0.6838000000D+00 -0.9520777209D-01
      0.9770000000D-01  0.1029914698D+01
 Atom Au4      Shell    30 P   1     bf   76 -    78         -7.014221307722          2.775010041812         -4.413353980844
      0.2790000000D-01  0.1000000000D+01
 Atom Au4      Shell    31 D   2     bf   79 -    83         -7.014221307722          2.775010041812         -4.413353980844
      0.1287000000D+01  0.5844272770D+00
      0.4335000000D+00  0.5298160791D+00
 Atom Au4      Shell    32 D   1     bf   84 -    88         -7.014221307722          2.775010041812         -4.413353980844
      0.1396000000D+00  0.1000000000D+01
 Atom Au5      Shell    33 S   3     bf   89 -    89        -11.910890812651          0.761612070582          0.120744619168
      0.1595000000D+01 -0.3687038149D+00
      0.5327000000D+00 -0.1034828905D+01
      0.2826000000D+00  0.1945011640D+01
 Atom Au5      Shell    34 S   3     bf   90 -    90        -11.910890812651          0.761612070582          0.120744619168
      0.2809000000D+01 -0.1202156130D+01
      0.1595000000D+01  0.1674158181D+01
      0.5327000000D+00  0.3526593382D+00
 Atom Au5      Shell    35 S   1     bf   91 -    91        -11.910890812651          0.761612070582          0.120744619168
      0.5980000000D-01  0.1000000000D+01
 Atom Au5      Shell    36 P   3     bf   92 -    94        -11.910890812651          0.761612070582          0.120744619168
      0.3684000000D+01 -0.2802680816D+00
      0.1666000000D+01  0.7818397487D+00
      0.5989000000D+00  0.4804775685D+00
 Atom Au5      Shell    37 P   2     bf   95 -    97        -11.910890812651          0.761612070582          0.120744619168
      0.6838000000D+00 -0.9520777209D-01
      0.9770000000D-01  0.1029914698D+01
 Atom Au5      Shell    38 P   1     bf   98 -   100        -11.910890812651          0.761612070582          0.120744619168
      0.2790000000D-01  0.1000000000D+01
 Atom Au5      Shell    39 D   2     bf  101 -   105        -11.910890812651          0.761612070582          0.120744619168
      0.1287000000D+01  0.5844272770D+00
      0.4335000000D+00  0.5298160791D+00
 Atom Au5      Shell    40 D   1     bf  106 -   110        -11.910890812651          0.761612070582          0.120744619168
[...]
 Alpha  occ. eigenvalues --   -0.27847  -0.27742  -0.27533  -0.27482  -0.27452
 Alpha  occ. eigenvalues --   -0.27240  -0.27082  -0.26942  -0.26858  -0.26743
 Alpha  occ. eigenvalues --   -0.26709  -0.26648  -0.26494  -0.26460  -0.26353
 Alpha  occ. eigenvalues --   -0.26205  -0.26057  -0.25995  -0.25910  -0.25764
 Alpha  occ. eigenvalues --   -0.25707  -0.25630  -0.25560  -0.25452  -0.25445
 Alpha  occ. eigenvalues --   -0.25310  -0.25283  -0.25224  -0.25081  -0.25041
 Alpha  occ. eigenvalues --   -0.24926  -0.24865  -0.24765  -0.24686  -0.24559
 Alpha  occ. eigenvalues --   -0.24417  -0.24174  -0.23975  -0.23897  -0.23521
 Alpha  occ. eigenvalues --   -0.23494  -0.23262  -0.23093  -0.23026  -0.22940
 Alpha  occ. eigenvalues --   -0.22852  -0.22711  -0.22512  -0.22381  -0.22148
 Alpha  occ. eigenvalues --   -0.22045  -0.21792  -0.21671  -0.21530  -0.21284
 Alpha  occ. eigenvalues --   -0.21198  -0.20944  -0.20877  -0.20617  -0.20353
 Alpha  occ. eigenvalues --   -0.20057  -0.19733  -0.19068  -0.18327  -0.16973
 Alpha virt. eigenvalues --   -0.09283  -0.09026  -0.07839  -0.07386  -0.06774
 Alpha virt. eigenvalues --   -0.06028  -0.05903  -0.05267  -0.05192  -0.04743
 Alpha virt. eigenvalues --   -0.04469  -0.04385  -0.04234  -0.03661  -0.03425
 Alpha virt. eigenvalues --   -0.03312  -0.03087  -0.02855  -0.02456  -0.02280
 Alpha virt. eigenvalues --   -0.01965  -0.01672  -0.01316  -0.00686  -0.00558
 Alpha virt. eigenvalues --   -0.00082   0.00061   0.00530   0.00909   0.01037
 Alpha virt. eigenvalues --    0.01127   0.01239   0.01631   0.01660   0.02065
 Alpha virt. eigenvalues --    0.02133   0.02483   0.02604   0.02811   0.02912
 Alpha virt. eigenvalues --    0.03122   0.03300   0.03376   0.03537   0.03710
 Alpha virt. eigenvalues --    0.03843   0.03968   0.04191   0.04314   0.04423
 Alpha virt. eigenvalues --    0.04523   0.04703   0.04904   0.05099   0.05133
 Alpha virt. eigenvalues --    0.05266   0.05718   0.05825   0.06193   0.06294
 Alpha virt. eigenvalues --    0.06522   0.06681   0.06731   0.06994   0.07184
 Alpha virt. eigenvalues --    0.07310   0.07611   0.07868   0.07983   0.08133
 Alpha virt. eigenvalues --    0.08589   0.08895   0.09104   0.09293   0.09684
 Alpha virt. eigenvalues --    0.09839   0.10065   0.10350   0.10501   0.10711
 Alpha virt. eigenvalues --    0.10902   0.11230   0.11385   0.11663   0.12202
 Alpha virt. eigenvalues --    0.12484   0.12716   0.12935   0.13229   0.13645
 Alpha virt. eigenvalues --    0.13757   0.13809   0.14095   0.14326   0.14353
 Alpha virt. eigenvalues --    0.14492   0.14935   0.15059   0.15344   0.15452
 Alpha virt. eigenvalues --    0.15511   0.15776   0.15934   0.16168   0.16329
 Alpha virt. eigenvalues --    0.16434   0.16726   0.16962   0.17030   0.17260
 Alpha virt. eigenvalues --    0.17269   0.17757   0.17846   0.17975   0.18141
 Alpha virt. eigenvalues --    0.18491   0.18672   0.18936   0.19094   0.19418
 Alpha virt. eigenvalues --    0.19895   0.20094   0.20152   0.20311   0.20400
 Alpha virt. eigenvalues --    0.20532   0.20831   0.21124   0.21461   0.21693
 Alpha virt. eigenvalues --    0.21947   0.22228   0.22346   0.22416   0.22581
 Alpha virt. eigenvalues --    0.23208   0.23228   0.23499   0.23801   0.24163
 Alpha virt. eigenvalues --    0.24588   0.24641   0.24956   0.25156   0.25735
 Alpha virt. eigenvalues --    0.26041   0.26874   0.27398   0.27510   0.28050
 Alpha virt. eigenvalues --    0.28855   0.29236   0.29682   0.30367   0.30552
 Alpha virt. eigenvalues --    0.30963   0.31070   0.31559   0.31965   0.32132
 Alpha virt. eigenvalues --    0.32343   0.32603   0.32669   0.33268   0.33596
 Alpha virt. eigenvalues --    0.33772   0.33990   0.34119   0.34390   0.34630
 Alpha virt. eigenvalues --    0.35011   0.35145   0.35642   0.35886   0.36010
 Alpha virt. eigenvalues --    0.36306   0.36550   0.36786   0.36888   0.37091
 Alpha virt. eigenvalues --    0.37510   0.37805   0.37952   0.38727   0.38955
 Alpha virt. eigenvalues --    0.39177   0.39488   0.39616   0.40464   0.40757
 Alpha virt. eigenvalues --    0.40821   0.40989   0.41158   0.41579   0.42098
 Alpha virt. eigenvalues --    0.42264   0.42437   0.42600   0.43033   0.43449
 Alpha virt. eigenvalues --    0.43732   0.44512   0.44580   0.44766   0.44902
 Alpha virt. eigenvalues --    0.45501   0.45707   0.46131   0.46557   0.46664
 Alpha virt. eigenvalues --    0.46997   0.47489   0.47687   0.47964   0.48192
 Alpha virt. eigenvalues --    0.48569   0.48911   0.49351   0.49441   0.49908
 Alpha virt. eigenvalues --    0.50424   0.50696   0.50767   0.51087   0.51150
 Alpha virt. eigenvalues --    0.51713   0.52464   0.52559   0.52909   0.53015
 Alpha virt. eigenvalues --    0.53365   0.53747   0.54049   0.54514   0.54793
 Alpha virt. eigenvalues --    0.54986   0.55209   0.55653   0.55915   0.56097
 Alpha virt. eigenvalues --    0.56435   0.56629   0.56885   0.57120   0.57586
 Alpha virt. eigenvalues --    0.57844   0.58088   0.58313   0.58588   0.58742
 Alpha virt. eigenvalues --    0.58997   0.59425   0.59642   0.60101   0.60306
 Alpha virt. eigenvalues --    0.60565   0.61093   0.61327   0.62003   0.62175
 Alpha virt. eigenvalues --    0.62586   0.62664   0.63013   0.63198   0.63306
 Alpha virt. eigenvalues --    0.63742   0.64447   0.64614   0.64923   0.65517
 Alpha virt. eigenvalues --    0.65834   0.66088   0.66324   0.66460   0.67043
 Alpha virt. eigenvalues --    0.67076   0.67226   0.67646   0.68206   0.68478
 Alpha virt. eigenvalues --    0.68668   0.69182   0.69532   0.69679   0.69841
 Alpha virt. eigenvalues --    0.70277   0.70588   0.70965   0.71189   0.71902
 Alpha virt. eigenvalues --    0.72006   0.72652   0.73014   0.73312   0.73543
 Alpha virt. eigenvalues --    0.73620   0.73944   0.74069   0.74378   0.74858
 Alpha virt. eigenvalues --    0.75001   0.75675   0.75765   0.76474   0.76585
 Alpha virt. eigenvalues --    0.76826   0.77040   0.77111   0.77274   0.77788
 Alpha virt. eigenvalues --    0.77868   0.78396   0.78760   0.78978   0.79309
 Alpha virt. eigenvalues --    0.79707   0.79891   0.80184   0.80695   0.81140
 Alpha virt. eigenvalues --    0.81297   0.81516   0.81844   0.82014   0.82114
 Alpha virt. eigenvalues --    0.82621   0.82894   0.82929   0.83222   0.83303
 Alpha virt. eigenvalues --    0.83507   0.83799   0.83936   0.84252   0.84415
 Alpha virt. eigenvalues --    0.84682   0.84943   0.85009   0.85326   0.85519
 Alpha virt. eigenvalues --    0.85702   0.86014   0.86073   0.86250   0.86540
 Alpha virt. eigenvalues --    0.86922   0.87028   0.87135   0.87467   0.87685
 Alpha virt. eigenvalues --    0.87906   0.88237   0.88340   0.88376   0.88480
 Alpha virt. eigenvalues --    0.88785   0.88863   0.89259   0.89525   0.89647
 Alpha virt. eigenvalues --    0.89898   0.90294   0.90436   0.90598   0.91362
 Alpha virt. eigenvalues --    0.91413   0.91881   0.92294   0.92563   0.92793
 Alpha virt. eigenvalues --    0.93238   0.93361   0.93554   0.94085   0.94242
 Alpha virt. eigenvalues --    0.94371   0.94735   0.95089   0.95456   0.96173
 Alpha virt. eigenvalues --    0.96300   0.96498   0.96650   0.97221   0.97304
 Alpha virt. eigenvalues --    0.97503   0.97999   0.98269   0.98384   0.98639
 Alpha virt. eigenvalues --    0.98762   0.99345   0.99434   0.99731   1.00302
 Alpha virt. eigenvalues --    1.00385   1.00566   1.01261   1.02080   1.02807
 Alpha virt. eigenvalues --    1.03250   1.03580   1.04151   1.04736   1.05765
 Alpha virt. eigenvalues --    1.05883   1.06846   1.07244   1.07550   1.07862
 Alpha virt. eigenvalues --    1.08805   1.09353   1.09675   1.09972   1.10538
 Alpha virt. eigenvalues --    1.11928   1.12268   1.13148   1.13283   1.14687
 Alpha virt. eigenvalues --    1.15757   1.17344   1.17801   1.18573   1.20268
 Alpha virt. eigenvalues --    1.22377   1.25097   1.26881   1.28089   1.29406
 Alpha virt. eigenvalues --    1.29642   1.29812   1.31217   1.31393   1.33649
 Alpha virt. eigenvalues --    1.34473   1.34810   1.36442   1.37489   1.40257
 Alpha virt. eigenvalues --    1.40372   1.40757   1.41125   1.41347   1.41374
 Alpha virt. eigenvalues --    1.41613   1.41757   1.41869   1.41962   1.42413
 Alpha virt. eigenvalues --    1.42562   1.42745   1.42963   1.43072   1.43153
 Alpha virt. eigenvalues --    1.43528   1.43633   1.44080   1.44836   1.45056
 Alpha virt. eigenvalues --    1.45186   1.45609   1.46226   1.47553   1.47708
 Alpha virt. eigenvalues --    1.94185   1.94537   1.94577   1.94622   1.94959
 Alpha virt. eigenvalues --    1.95079   1.95233   1.95662   1.95774   1.96415
 Alpha virt. eigenvalues --    1.96597   1.96684   1.96945   1.97127   1.97310
 Alpha virt. eigenvalues --    1.97368   1.97459   1.98005   1.98183   1.98214
 Alpha virt. eigenvalues --    1.98400   1.98506   1.98550   1.98626   1.98730
 Alpha virt. eigenvalues --    1.98763   1.98782   1.98895   1.99061   1.99155
 Alpha virt. eigenvalues --    1.99241   1.99353   1.99533   1.99651   1.99714
 Alpha virt. eigenvalues --    1.99885   1.99998   2.00250   2.00345   2.00425
 Alpha virt. eigenvalues --    2.00691   2.00779   2.00993   2.01184   2.01350
 Alpha virt. eigenvalues --    2.01589   2.01939   2.02070   2.02324   2.02931
 Alpha virt. eigenvalues --    2.03916   2.04461   2.24863   2.24902   2.25178
 Alpha virt. eigenvalues --    2.25273   2.25368   2.25534   2.25870   2.26076
 Alpha virt. eigenvalues --    2.26207   2.26279   2.26416   2.26526   2.26682
 Alpha virt. eigenvalues --    2.26763   2.26889   2.27045   2.27345   2.27383
 Alpha virt. eigenvalues --    2.27586   2.27682   2.27894   2.27999   2.28101
 Alpha virt. eigenvalues --    2.28221   2.28809   2.29479   2.51692   2.51907
 Alpha virt. eigenvalues --    2.51961   2.52089   2.52277   2.52388   2.52537
 Alpha virt. eigenvalues --    2.52561   2.52634   2.52928   2.53182   2.53403
 Alpha virt. eigenvalues --    2.53664   2.70784   2.71234   2.71472   2.71628
 Alpha virt. eigenvalues --    2.71641   2.71731   2.71926   2.71954   2.72000
 Alpha virt. eigenvalues --    2.72256   2.72389   2.72575   2.72620   2.72652
 Alpha virt. eigenvalues --    2.72714   2.72764   2.72824   2.72890   2.72931
 Alpha virt. eigenvalues --    2.73021   2.73083   2.73242   2.73311   2.73368
 Alpha virt. eigenvalues --    2.73417   2.73595   3.09214   3.09240   3.09945
 Alpha virt. eigenvalues --    3.10049   3.10585   3.11383   3.11568   3.11809
 Alpha virt. eigenvalues --    3.11971   3.12419   3.12541   3.13238   3.13827
 Alpha virt. eigenvalues --    3.30812   3.31190   3.31313   3.31398   3.31648
 Alpha virt. eigenvalues --    3.31977   3.32005   3.32412   3.32467   3.32620
 Alpha virt. eigenvalues --    3.32675   3.32911   3.33013   3.33156   3.33246
 Alpha virt. eigenvalues --    3.33373   3.33489   3.33811   3.34190   3.34194
 Alpha virt. eigenvalues --    3.34426   3.34738   3.35054   3.35342   3.35683
 Alpha virt. eigenvalues --    3.36451   6.44525   7.49296   8.55737   8.75577
 Alpha virt. eigenvalues --    9.69386  10.14566  10.48224  10.71294  11.49256
 Alpha virt. eigenvalues --   12.23499  12.92010  16.14167  17.42381  20.72052
 Alpha virt. eigenvalues --   23.44219
          Condensed to atoms (all electrons):
 Mulliken atomic charges:
              1
     1  Au   0.194493
     2  Au   0.144666
     3  Au   1.898983
     4  Au  -0.661612
     5  Au  -0.470184
     6  Au  -0.363333
     7  Au  -0.643947
     8  Au  -0.635566
     9  Au   0.083218
    10  Au  -0.565770
    11  Au  -0.641839
    12  Au  -0.268672
    13  Au  -0.303181
    14  Au  -0.390413
    15  Au  -0.388612
    16  S    0.140821
    17  S    0.198429
    18  S    0.155177
    19  S    0.147108
    20  S    0.218887
    21  S    0.224592
    22  S    0.162495
    23  S    0.200563
    24  S    0.091421
    25  S    0.122931
    26  S    0.077185
    27  S    0.181677
    28  S    0.117974
    29  C   -0.511701
    30  C   -0.505851
    31  C   -0.501208
    32  C   -0.531843
    33  C   -0.522959
    34  C   -0.526533
    35  C   -0.512736
    36  C   -0.513494
    37  C   -0.506070
    38  C   -0.493432
    39  C   -0.500385
    40  C   -0.512776
    41  C   -0.511528
    42  H    0.188032
    43  H    0.224339
    44  H    0.184287
    45  H    0.189228
    46  H    0.179626
    47  H    0.210483
    48  H    0.207982
    49  H    0.208351
    50  H    0.181428
    51  H    0.212161
    52  H    0.217087
    53  H    0.190490
    54  H    0.187308
    55  H    0.197458
    56  H    0.190178
    57  H    0.206955
    58  H    0.186876
    59  H    0.183121
    60  H    0.192317
    61  H    0.188827
    62  H    0.206691
    63  H    0.181968
    64  H    0.204075
    65  H    0.185234
    66  H    0.181562
    67  H    0.190986
    68  H    0.203691
    69  H    0.189409
    70  H    0.200081
    71  H    0.202352
    72  H    0.188297
    73  H    0.184158
    74  H    0.194763
    75  H    0.187944
    76  H    0.186439
    77  H    0.222355
    78  H    0.195199
    79  H    0.181568
    80  H    0.209718
 Sum of Mulliken atomic charges =   0.00000
 Mulliken charges with hydrogens summed into heavy atoms:
              1
     1  Au   0.194493
     2  Au   0.144666
     3  Au   1.898983
     4  Au  -0.661612
     5  Au  -0.470184
     6  Au  -0.363333
     7  Au  -0.643947
     8  Au  -0.635566
     9  Au   0.083218
    10  Au  -0.565770
    11  Au  -0.641839
    12  Au  -0.268672
    13  Au  -0.303181
    14  Au  -0.390413
    15  Au  -0.388612
    16  S    0.140821
    17  S    0.198429
    18  S    0.155177
    19  S    0.147108
    20  S    0.218887
    21  S    0.224592
    22  S    0.162495
    23  S    0.200563
    24  S    0.091421
    25  S    0.122931
    26  S    0.077185
    27  S    0.181677
    28  S    0.117974
    29  C    0.084956
    30  C    0.073486
    31  C    0.061107
    32  C    0.065919
    33  C    0.071633
    34  C    0.081147
    35  C    0.084002
    36  C    0.081390
    37  C    0.083663
    38  C    0.064350
    39  C    0.066832
    40  C    0.079066
    41  C    0.074957
 Sum of Mulliken charges with hydrogens summed into heavy atoms =   0.00000
 Electronic spatial extent (au):  <R**2>=          55248.0731
 Charge=              0.0000 electrons
 Dipole moment (field-independent basis, Debye):
    X=              1.1272    Y=             -1.1235    Z=              0.4869  Tot=              1.6643
 Quadrupole moment (field-independent basis, Debye-Ang):
   XX=           -563.3795   YY=           -593.4082   ZZ=           -581.3811
   XY=             17.8509   XZ=             31.4512   YZ=              2.9857
 Traceless Quadrupole moment (field-independent basis, Debye-Ang):
   XX=             16.0101   YY=            -14.0186   ZZ=             -1.9915
   XY=             17.8509   XZ=             31.4512   YZ=              2.9857
 Octapole moment (field-independent basis, Debye-Ang**2):
  XXX=             39.2920  YYY=             -0.1293  ZZZ=              8.0034  XYY=             38.2813
  XXY=             -4.4559  XXZ=            -14.5692  XZZ=             40.8169  YZZ=            -25.8413
  YYZ=             31.5245  XYZ=            -52.6383
 Hexadecapole moment (field-independent basis, Debye-Ang**3):
 XXXX=         -52509.1070 YYYY=         -16370.2538 ZZZZ=         -14052.6975 XXXY=           1106.0921
 XXXZ=           1485.5777 YYYX=             69.2907 YYYZ=            212.7757 ZZZX=             19.6463
 ZZZY=            -51.6067 XXYY=         -11503.6466 XXZZ=         -11088.7990 YYZZ=          -5308.1806
 XXYZ=           -183.0964 YYXZ=            -52.1371 ZZXY=           -235.0351
 N-N= 1.762197282521D+04 E-N=-5.295804448764D+04  KE= 6.320931842871D+03
 Leave Link  601 at Thu Mar 26 10:50:37 2015, MaxMem= 2147483648 cpu:     401.6
 (Enter /opt/g09/bin/l9999.exe)
 1\1\GINC-NODE01\SP\RPBEPBE TD-FC\Gen\C13H39Au15S13\SULEE\26-Mar-2015\0
 \\#p PBEPBE/gen gfinput gfprint SCF(maxcycle=512,conver=6) geom=check 
 guess=read td(nstat=80,conver=2) pseudo=read\\Au15\\0,1\Au,0,7.8204720
 593,7.7508016931,6.8522320969\Au,0,7.7485817575,6.1318046521,4.5458648
 405\Au,0,9.4430157905,5.4970368628,6.6455170012\Au,0,12.7660521585,4.3
 915206127,8.2563068603\Au,0,15.2999303152,6.4897908263,6.588049231\Au,
 0,13.4253294514,8.7923466459,4.4495044021\Au,0,10.446415428,3.88402396
 82,4.2782985645\Au,0,7.1615014936,3.4106644731,5.727633132\Au,0,12.279
 6661974,6.5770410868,6.2379854823\Au,0,6.9411468894,5.4930778958,8.728
 0291529\Au,0,10.0216856553,7.3437865962,9.1045564698\Au,0,9.9060118341
 ,7.8294979106,4.9779365914\Au,0,2.5925130174,6.2812406512,6.7747414981
 \Au,0,4.2515825883,6.0260527588,3.5867342553\Au,0,4.8196118588,8.05419
 50165,8.4056007336\S,0,15.6692971385,8.1219092913,4.8906144576\S,0,10.
 4429614697,3.9119384153,8.3205288863\S,0,15.0828521774,4.9545319543,8.
 4017742007\S,0,11.2364602475,9.5379560656,3.8984414898\S,0,12.45204175
 11,5.1613735285,4.250439044\S,0,11.8698901498,8.2796796796,7.940080521
 5\S,0,8.6745131336,2.2969457875,4.2660516336\S,0,8.3225045032,6.374998
 2618,10.4588966809\S,0,2.0618138737,5.9701071916,4.4919285325\S,0,3.12
 76960822,6.5295498625,9.0776733561\S,0,6.3780898777,5.9334408079,2.564
 5086529\S,0,5.531849069,4.3463710691,7.1787953271\S,0,6.4656949692,9.5
 839379507,7.6652200727\C,0,11.0084607537,10.9678968591,5.0488545441\C,
 0,16.0523818215,7.1004626864,3.3979409053\C,0,15.9828852573,3.44135342
 02,7.8489737473\C,0,10.2988537492,2.2060105141,7.6390176071\C,0,13.687
 0473127,3.8581365038,4.6699721249\C,0,13.2351876734,8.1576800044,9.174
 0160363\C,0,7.9060681685,2.429439857,2.5937660436\C,0,7.4061652766,7.8
 169140503,11.1547712802\C,0,6.5908546114,7.5940435775,1.7813424646\C,0
 ,1.3520689134,7.6018117308,3.9875932669\C,0,1.7676228115,7.5832165194,
 9.7554671981\C,0,4.9206691752,2.9036080524,8.1586522093\C,0,5.73335127
 92,10.2321395048,6.0942954429\H,0,9.9628198557,11.2989460235,4.9698694
 378\H,0,11.2341973716,10.6781027136,6.0836172501\H,0,11.6799963192,11.
 7755465651,4.7230364854\H,0,16.1799459994,7.7890672618,2.5502648414\H,
 0,16.9927181537,6.5614149228,3.5819245322\H,0,15.2393648058,6.39475895
 4,3.1815198741\H,0,9.2253024566,1.9763057622,7.5520835235\H,0,10.76822
 32996,2.1265932393,6.6480898785\H,0,10.7724059877,1.5076987597,8.34470
 67251\H,0,13.2962195656,7.1475317952,9.6013806082\H,0,7.1248222619,8.5
 312744202,10.3705396115\H,0,6.5024714779,7.4352971143,11.6516848636\H,
 0,8.0612897229,8.3032035879,11.8924734422\H,0,14.6625121075,4.35379968
 62,4.8081130642\H,0,13.7374647018,3.1456938289,3.8332603107\H,0,13.408
 0079581,3.3398855751,5.5996766419\H,0,17.0535255332,3.6859688118,7.796
 4097826\H,0,15.6282837875,3.0932748987,6.8706155323\H,0,15.8181170873,
 2.6607551188,8.605670776\H,0,13.0376707345,8.8906554064,9.9700896504\H
 ,0,14.1779244587,8.4062646745,8.6628277114\H,0,5.878643452,7.674809524
 3,0.9475521557\H,0,6.4220800501,8.3996318679,2.5069663916\H,0,1.233342
 4229,7.5944524591,2.8946246889\H,0,0.3667986602,7.700595441,4.46507734
 52\H,0,2.0010970613,8.43231229,4.2916025374\H,0,7.6204702666,7.6500382
 636,1.4000011292\H,0,4.3735431184,2.238142256,7.4751557423\H,0,5.74886
 03688,2.3628727699,8.6339132602\H,0,4.2347794066,3.2953357169,8.924068
 4852\H,0,2.0682484451,7.9192512339,10.7583067487\H,0,0.8626278429,6.96
 32614475,9.8296596598\H,0,1.5782951402,8.4497736472,9.1103006661\H,0,7
 .0058194345,1.7980737107,2.5886228594\H,0,8.6331016354,2.0450720072,1.
 8637648923\H,0,7.6391458548,3.4671868357,2.3554452964\H,0,6.533827591,
 10.7362061864,5.5335776547\H,0,4.9475026555,10.9562698165,6.3545899577
 \H,0,5.3130692066,9.4147576102,5.4937769478\\Version=EM64L-G09RevB.01\
 State=1-A\HF=-7725.0607602\RMSD=7.426e-07\PG=C01 [X(C13H39Au15S13)]\\@


 GOOD SENSE ABOUT TRIVIALITIES IS BETTER THAN NONSENSE
 ABOUT THINGS THAT MATTER

                                       -- MAX BEERBOHM
 Job cpu time:  6 days  2 hours 15 minutes 19.1 seconds.
 File lengths (MBytes):  RWF=  19785 Int=      0 D2E=      0 Chk=   2820 Scr=      2
 Normal termination of Gaussian 09 at Thu Mar 26 11:19:33 2015.
